# vtk DataFile Version 4.0
hesp visualization file
ASCII
DATASET UNSTRUCTURED_GRID
POINTS 1250 double
34.898991 5.6851193 4
31.368426 -0.33435192 4
34.527801 5.7014871 4
29.962837 2.1840905 4
29.391472 4.6742964 4
30.43541 7.8392376 4
30.948137 6.9582222 4
32.88922 9.0575655 4
29.877562 10.294143 4
31.077879 11.130267 4
28.819817 12.664053 4
32.665257 14.106561 4
32.02633 16.54934 4
32.314079 15.092372 4
30.348824 16.604005 4
31.086939 17.941294 4
29.742926 17.871595 4
30.304246 18.710481 4
31.766719 20.103327 4
30.798404 19.388972 4
32.248818 22.126471 4
33.960013 26.783949 4
36.779994 22.85551 4
31.75238 28.885532 4
32.130792 27.686267 4
30.522041 -9.8795147 4
32.476135 2.022791 4
31.837145 -2.133048 4
34.241601 5.6833272 4
35.707462 5.1359726 4
29.055257 7.5688423 4
30.984301 6.1456442 4
30.508996 11.036287 4
31.942208 10.013414 4
31.837575 11.468599 4
32.782676 11.549623 4
29.178213 12.605139 4
30.697738 15.002562 4
29.50142 16.287827 4
30.513005 16.167108 4
32.124792 17.975994 4
32.411067 17.910143 4
30.761466 17.886016 4
30.002563 20.845987 4
29.674745 21.772625 4
31.506364 24.663567 4
31.723447 24.118263 4
31.844451 31.313447 4
33.205483 27.724956 4
30.522041 39.063528 4
31.852476 -1.6623525 4
34.151109 4.4756978 4
29.090056 6.6091635 4
32.7314 5.6723235 4
33.488739 4.6144684 4
28.6255 9.2924259 4
32.860012 12.681094 4
32.690471 10.417148 4
32.646879 9.4209897 4
31.913883 10.739284 4
29.514808 12.793479 4
32.880643 13.979096 4
34.144709 15.747171 4
32.621036 16.189842 4
32.073921 17.502783 4
32.357853 17.295676 4
30.823294 19.131528 4
31.122338 21.771784 4
33.71633 18.570071 4
31.881772 18.051738 4
33.44383 23.744334 4
35.49541 24.966666 4
31.704626 25.032351 4
33.963399 25.450063 4
31.854456 30.840673 4
31.515268 -2.534783 4
31.94913 -5.428079 4
31.532138 4.1933993 4
33.995033 3.8005884 4
28.422053 5.237474 4
31.419232 10.11849 4
33.580454 8.1285529 4
30.297668 10.404076 4
32.830307 13.266215 4
32.695646 10.976582 4
32.275072 11.29919 4
29.828712 12.993559 4
28.866442 13.892755 4
29.777422 16.231932 4
30.487795 17.194246 4
32.682959 17.958154 4
34.47528 18.157366 4
31.442284 19.870759 4
32.360564 21.454596 4
30.198716 24.181223 4
32.449588 24.467098 4
35.449224 26.173428 4
31.230453 25.23844 4
31.949134 34.612093 4
31.515262 31.718844 4
31.184989 6.9215074 4
32.207052 3.89788 4
32.454486 0.17945786 4
36.919418 3.7492415 4
31.570267 8.0244651 4
31.250326 4.1673252 4
30.886771 7.5573421 4
33.327047 10.978643 4
32.176281 10.688037 4
32.554807 13.812119 4
31.759426 14.612251 4
34.135152 15.395834 4
33.610958 15.861411 4
31.518804 17.042233 4
32.059197 16.78667 4
32.817753 17.066133 4
32.001894 19.895945 4
31.550996 20.782355 4
31.049837 23.288264 4
31.030883 20.165342 4
30.486991 19.664364 4
33.189453 21.439405 4
32.209878 28.792796 4
32.80599 24.353055 4
35.59445 23.54018 4
30.593132 -2.7505552 4
32.112692 -4.3581345 4
35.41114 3.3387707 4
30.125489 9.7876146 4
32.201794 7.7286349 4
31.326075 5.9666785 4
34.673854 7.7327773 4
33.789227 9.3219915 4
32.47197 9.6408949 4
35.106386 9.2982549 4
32.97062 12.250455 4
33.964187 11.360996 4
34.19305 11.743766 4
34.4501 14.214787 4
35.069587 17.122139 4
34.005765 16.843333 4
33.126988 18.944506 4
32.336828 19.037731 4
31.558832 21.418187 4
30.452358 21.550305 4
33.368992 22.29323 4
30.766445 23.51085 4
33.909492 21.988874 4
32.113005 33.542235 4
30.593127 31.934573 4
30.63839 1.3575838 4
36.950421 2.9915995 4
29.754316 0.79938711 4
34.631357 6.3928138 4
30.025649 4.242158 4
34.127683 7.2022299 4
36.179232 7.4337925 4
32.667555 9.9802191 4
33.372534 10.513326 4
33.046336 11.304708 4
33.491903 12.749051 4
33.259185 13.911411 4
34.185556 15.008391 4
33.874747 13.165383 4
33.162796 17.260296 4
33.105125 17.878168 4
33.248597 20.342152 4
35.756931 20.073864 4
33.892105 21.191751 4
32.09569 21.537109 4
30.302749 22.515866 4
34.43404 23.515709 4
29.601299 28.239636 4
36.733491 25.40727 4
30.95536 27.872948 4
38.761028 -6.414324 4
33.092546 2.3883169 4
36.189501 1.47495 4
33.565688 6.2297235 4
35.936764 5.9486969 4
33.515949 6.5751348 4
33.425864 9.3461278 4
36.229246 9.9454595 4
34.703606 10.599478 4
34.145081 9.7818618 4
34.490648 11.434749 4
34.437541 13.25078 4
36.010117 13.160819 4
35.44094 16.387997 4
34.435484 15.709719 4
34.642699 17.797811 4
34.059824 19.497114 4
37.584697 19.598064 4
35.201795 20.660099 4
33.444308 21.980776 4
36.462413 24.9938 4
33.061434 23.263495 4
36.20894 27.729303 4
33.002659 26.698251 4
38.761028 35.598337 4
32.386973 1.4948933 4
31.213244 1.5263176 4
36.586371 0.25075771 4
35.57578 7.068804 4
36.965371 5.745027 4
36.30288 5.9360651 4
34.167334 9.009349 4
35.463135 11.814491 4
34.670045 12.113969 4
34.757227 12.654369 4
34.598278 13.035458 4
35.255253 14.120712 4
33.841107 16.423508 4
34.181797 14.467896 4
35.798551 17.473945 4
34.38906 17.26264 4
34.76171 18.402016 4
36.257433 17.881092 4
33.327298 20.754253 4
34.962844 21.737379 4
34.608783 21.223815 4
37.709057 23.597886 4
37.022298 28.989053 4
31.211961 27.658544 4
31.569044 26.401133 4
32.360987 0.76410767 4
33.846981 -3.2972869 4
35.569311 2.2160811 4
35.658541 4.4588469 4
36.468043 6.9039509 4
34.576447 9.5733689 4
36.48495 8.4714939 4
34.696606 10.294384 4
36.823829 10.760088 4
36.482012 11.163783 4
36.968209 11.578991 4
36.133803 11.944081 4
33.785011 13.701782 4
35.421061 16.127191 4
36.776646 16.802958 4
37.837426 16.959688 4
35.256425 17.973761 4
34.592058 18.569482 4
36.649987 20.385537 4
37.29758 22.906486 4
35.749093 22.20678 4
35.671292 24.223094 4
35.542133 26.873175 4
33.846982 32.481297 4
32.323692 28.313803 4
30.819053 -0.19759797 4
35.630672 2.7111026 4
37.366331 5.6079091 4
33.806516 2.0772475 4
39.6777 5.4816469 4
36.19866 6.5384989 4
36.11859 7.7982986 4
35.652049 10.944967 4
37.268847 9.5151208 4
36.835826 11.036737 4
36.235229 12.734505 4
36.724004 14.481414 4
38.193972 14.1386 4
36.442052 16.61372 4
36.853654 17.626101 4
35.74258 18.166743 4
36.624666 18.362415 4
35.703664 19.345271 4
35.808492 20.416332 4
36.739006 22.641715 4
37.238885 25.300143 4
33.990718 27.500659 4
34.876225 24.48815 4
35.591757 26.4591 4
30.790967 29.53784 4
31.931797 -0.89113036 4
34.584572 -0.28275002 4
38.56967 8.7751406 4
34.618986 3.6082267 4
34.341356 6.9977911 4
36.944215 6.7904298 4
37.002351 7.8190588 4
35.960145 8.9788341 4
36.877008 10.079593 4
37.814506 11.134251 4
36.895185 12.179251 4
37.398344 12.252515 4
37.267139 14.088862 4
37.175257 16.138764 4
37.536213 17.379843 4
36.879698 17.958415 4
36.879936 19.097097 4
37.084188 19.853705 4
36.535379 21.291783 4
39.96789 22.786534 4
35.567576 20.921867 4
34.46763 25.581685 4
38.644205 20.606525 4
34.59214 29.492584 4
31.931856 30.075243 4
32.491403 1.1481548 4
33.807193 0.075987727 4
39.158762 2.893769 4
38.871368 6.2089378 4
36.54506 5.6795838 4
38.427728 6.9314137 4
39.118615 9.0047158 4
37.084455 8.9812647 4
38.003914 10.144778 4
38.070203 11.245184 4
38.126396 12.777563 4
37.194755 13.243658 4
36.182581 14.897749 4
37.093338 15.523141 4
38.727492 16.54258 4
38.002792 17.959369 4
38.003582 19.046082 4
37.082554 20.203184 4
39.118726 20.159615 4
38.176203 22.791164 4
37.662963 22.751423 4
37.423935 23.533122 4
39.120204 26.219542 4
33.857674 29.154852 4
32.490846 28.035937 4
33.160346 -0.395589 4
36.848447 2.0742591 4
35.692199 1.4604715 4
36.662219 4.4441394 4
38.544795 4.256215 4
37.604966 6.7115005 4
37.278089 7.8801914 4
38.191595 9.007199 4
39.128926 10.058952 4
39.125541 11.22462 4
39.08863 12.03613 4
38.362159 12.891228 4
38.872502 13.643346 4
38.353572 16.32055 4
39.125595 16.830396 4
39.125542 17.959397 4
39.127926 19.118212 4
38.194638 20.177131 4
37.275861 21.294812 4
38.594536 21.767168 4
37.940433 24.065332 4
35.796675 25.161156 4
35.725511 27.686963 4
36.787956 27.035088 4
33.161153 29.569796 4
36.68998 -0.36722897 4
35.113999 1.1350134 4
36.029474 2.4748222 4
36.972953 4.3792011 4
38.931793 3.829483 4
39.283801 8.1660654 4
38.414148 7.8513369 4
39.459681 9.0131873 4
39.439537 10.115503 4
39.44517 11.224635 4
39.329147 12.36273 4
40.199268 13.972447 4
40.783825 15.343404 4
40.197164 15.214795 4
39.444727 16.839678 4
39.445155 17.959384 4
39.441152 19.070577 4
39.459543 20.198445 4
38.415001 21.334232 4
39.334567 20.901753 4
38.900792 23.909014 4
36.697 24.472835 4
36.002322 26.785491 4
35.127153 28.088717 4
36.737899 29.450259 4
37.454083 -0.32373259 4
37.483585 3.1029202 4
38.408921 5.9948018 4
38.709395 2.9020978 4
39.475993 7.4439736 4
38.61803 6.7317498 4
40.236401 7.9234726 4
40.452491 8.961298 4
40.451949 10.102376 4
40.451948 11.224613 4
40.452447 12.330549 4
39.550719 13.396497 4
38.663898 14.403787 4
39.545543 15.769556 4
40.45195 16.836379 4
40.451948 17.959398 4
40.451949 19.081635 4
40.451947 20.206418 4
40.128605 21.362571 4
38.604809 22.443821 4
39.091874 24.544319 4
38.574034 25.559494 4
39.281275 24.208115 4
37.007468 26.049765 4
37.421175 29.608985 4
36.980847 1.128702 4
38.059575 3.1273801 4
42.153939 2.5095254 4
42.376177 5.9457544 4
39.96202 4.8244155 4
40.649851 6.851124 4
40.656054 7.8830181 4
40.771839 8.9843105 4
40.772992 10.102087 4
40.772993 11.224623 4
40.772318 12.35251 4
40.657211 13.51812 4
39.740571 14.717933 4
40.823153 15.94692 4
40.772986 16.837167 4
40.772993 17.959391 4
40.772992 19.081927 4
40.772615 20.20494 4
40.656271 21.298575 4
39.375656 22.132168 4
40.475936 22.019272 4
42.294491 24.147306 4
41.922687 26.750578 4
38.105359 26.121572 4
36.978171 28.056792 4
38.104057 1.1302842 4
37.9736 1.4532489 4
38.312702 2.4755384 4
39.017671 4.3730957 4
39.909262 6.5242183 4
41.328303 6.7266169 4
41.781444 7.8217085 4
41.778327 8.980761 4
41.778325 10.102158 4
41.778325 11.22462 4
41.778325 12.347047 4
41.782883 13.419675 4
40.912449 14.216491 4
41.782998 15.764747 4
41.778324 16.836885 4
41.778325 17.959393 4
41.778325 19.081855 4
41.778327 20.203297 4
41.782001 21.365382 4
40.859786 22.412374 4
41.777924 22.64508 4
39.135941 25.231991 4
38.534388 26.839908 4
37.84734 27.567758 4
38.104263 28.054795 4
39.138043 1.102122 4
40.012007 -0.20567912 4
39.22498 3.3667947 4
[...]
POINT_DATA 1250
SCALARS m double
LOOKUP_TABLE default
1
1
1
1
1
1
1
1
1
1
1
1
1
1
1
1
1
1
1
1
1
1
1
1
1
1
1
1
1
1
1
1
1
1
1
1
1
1
1
1
1
1
1
1
1
1
1
1
1
1
1
1
1
1
1
1
1
1
1
1
1
1
1
1
1
1
1
1
1
1
1
1
1
1
1
1
1
1
1
1
1
1
1
1
1
1
1
1
1
1
1
1
1
1
1
1
1
1
1
1
1
1
1
1
1
1
1
1
1
1
1
1
1
1
1
1
1
1
1
1
1
1
1
1
1
1
1
1
1
1
1
1
1
1
1
1
1
1
1
1
1
1
1
1
1
1
1
1
1
1
1
1
1
1
1
1
1
1
1
1
1
1
1
1
1
1
1
1
1
1
1
1
1
1
1
1
1
1
1
1
1
1
1
1
1
1
1
1
1
1
1
1
1
1
1
1
1
1
1
1
1
1
1
1
1
1
1
1
1
1
1
1
1
1
1
1
1
1
1
1
1
1
1
1
1
1
1
1
1
1
1
1
1
1
1
1
1
1
1
1
1
1
1
1
1
1
1
1
1
1
1
1
1
1
1
1
1
1
1
1
1
1
1
1
1
1
1
1
1
1
1
1
1
1
1
1
1
1
1
1
1
1
1
1
1
1
1
1
1
1
1
1
1
1
1
1
1
1
1
1
1
1
1
1
1
1
1
1
1
1
1
1
1
1
1
1
1
1
1
1
1
1
1
1
1
1
1
1
1
1
1
1
1
1
1
1
1
1
1
1
1
1
1
1
1
1
1
1
1
1
1
1
1
1
1
1
1
1
1
1
1
1
1
1
1
1
1
1
1
1
1
1
1
1
1
1
1
1
1
1
1
1
1
1
1
1
1
1
1
1
1
1
1
1
1
1
1
1
1
1
1
1
1
1
1
1
1
1
1
1
1
1
1
1
1
1
1
1
1
1
1
1
1
1
1
1
1
1
1
1
1
1
1
1
1
1
1
1
1
1
1
1
1
1
1
1
1
1
1
1
1
1
1
1
1
1
1
1
1
1
1
1
1
1
1
1
1
1
1
1
1
1
1
1
1
1
1
1
1
1
1
1
1
1
1
1
1
1
1
1
1
1
1
1
1
1
1
1
1
1
1
1
1
1
1
1
1
1
1
1
1
1
1
1
1
1
1
1
1
1
1
1
1
1
1
1
1
1
1
1
1
1
1
1
1
1
1
1
1
1
1
1
1
1
1
1
1
1
1
1
1
1
1
1
1
1
1
1
1
1
1
1
1
1
1
1
1
1
1
1
1
1
1
1
1
1
1
1
1
1
1
1
1
1
1
1
1
1
1
1
1
1
1
1
1
1
1
1
1
1
1
1
1
1
1
1
1
1
1
1
1
1
1
1
1
1
1
1
1
1
1
1
1
1
1
1
1
1
1
1
1
1
1
1
1
1
1
1
1
1
1
1
1
1
1
1
1
1
1
1
1
1
1
1
1
1
1
1
1
1
1
1
1
1
1
1
1
1
1
1
1
1
1
1
1
1
1
1
1
1
1
1
1
1
1
1
1
1
1
1
1
1
1
1
1
1
1
1
1
1
1
1
1
1
1
1
1
1
1
1
1
1
1
1
1
1
1
1
1
1
1
1
1
1
1
1
1
1
1
1
1
1
1
1
1
1
1
1
1
1
1
1
1
1
1
1
1
1
1
1
1
1
1
1
1
1
1
1
1
1
1
1
1
1
1
1
1
1
1
1
1
1
1
1
1
1
1
1
1
1
1
1
1
1
1
1
1
1
1
1
1
1
1
1
1
1
1
1
1
1
1
1
1
1
1
1
1
1
1
1
1
1
1
1
1
1
1
1
1
1
1
1
1
1
1
1
1
1
1
1
1
1
1
1
1
1
1
1
1
1
1
1
1
1
1
1
1
1
1
1
1
1
1
1
1
1
1
1
1
1
1
1
1
1
1
1
1
1
1
1
1
1
1
1
1
1
1
1
1
1
1
1
1
1
1
1
1
1
1
1
1
1
1
1
1
1
1
1
1
1
1
1
1
1
1
1
1
1
1
1
1
1
1
1
1
1
1
1
1
1
1
1
1
1
1
1
1
1
1
1
1
1
1
1
1
1
1
1
1
1
1
1
1
1
1
1
1
1
1
1
1
1
1
1
1
1
1
1
1
1
1
1
1
1
1
1
1
1
1
1
1
1
1
1
1
1
1
1
1
1
1
1
1
1
1
1
1
1
1
1
1
1
1
1
1
1
1
1
1
1
1
1
1
1
1
1
1
1
1
1
1
1
1
1
1
1
1
1
1
1
1
1
1
1
1
1
1
1
1
1
1
1
1
1
1
1
1
1
1
1
1
1
1
1
1
1
1
1
1
1
1
1
1
1
1
1
1
1
1
1
1
1
1
1
1
1
1
1
1
1
1
1
1
1
1
1
1
1
1
1
1
1
1
1
1
1
1
1
1
1
1
1
1
1
1
1
1
1
1
1
1
1
1
1
1
1
1
1
1
1
1
1
1
1
1
1
1
1
1
1
1
1
1
1
1
1
1
1
1
1
1
1
1
1
1
1
1
1
1
1
1
1
1
1
1
1
1
1
1
1
1
1
1
1
1
1
1
1
1
1
1
1
1
1
1
1
1
1
1
1
1
1
1
1
1
1
1
1
1
1
1
1
1
1
1
1
1
1
1
1
1
1
1
1
1
1
1
1
1
1
1
1
1
1
1
1
1
1
1
1
1
1
1
1
1
1
1
1
1
1
1
1
1
1
1
1
1
1
1
1
1
1
1
1
1
1
1
1
1
1
1
1
1
1
1
1
1
1
1
1
VECTORS v double
3.225294 7.6330319 0
4.6753579 -10.071976 0
4.9635044 3.5570172 0
-7.6360045 -7.0273118 0
3.4784141 -0.68246029 0
-2.7624452 1.9107203 0
-4.0523606 -0.50568031 0
9.779056 0.25818756 0
-8.8313798 -0.57040319 0
10.024916 -1.0047734 0
-5.972726 -1.5250084 0
1.9452409 -0.28020604 0
-2.4890232 3.8725713 0
6.4797525 4.6332706 0
-2.4075569 -13.32853 0
10.376885 -0.091554239 0
-7.9367885 -9.744882 0
1.7936655 -7.1265479 0
-4.4876807 5.0685749 0
2.46431 -1.3744426 0
-6.6499322 -4.385869 0
7.7181454 8.4778106 0
-7.5165487 -7.257993 0
7.0860638 7.9528744 0
-11.587217 7.0060125 0
2.6313902 -13.726701 0
-8.3799241 0.35769874 0
5.4696079 -9.6852061 0
9.8666302 -0.044177905 0
1.5217978 -10.580232 0
-10.771237 1.1000953 0
-7.2522046 -10.713272 0
-9.2737664 8.3866758 0
-5.5486684 -5.9366493 0
-7.1218931 7.120396 0
5.1925911 -1.1663962 0
-2.3545977 -2.4051734 0
5.6433393 1.2831063 0
5.4531078 -14.214846 0
-7.7110781 -6.2950807 0
6.9171573 -2.1062577 0
7.1570228 -5.8137653 0
2.9247271 12.516247 0
-3.7669259 -14.351248 0
-8.973249 -5.5140796 0
-4.6416078 -3.5785807 0
7.973136 -2.0627819 0
5.4838935 9.6772748 0
-2.436743 8.4225214 0
2.6313903 13.726701 0
0.13121326 -9.3500079 0
8.2735191 0.87547933 0
0.95454165 5.1688826 0
2.6478726 0.55932128 0
12.840906 1.3944575 0
0.69132235 5.5760482 0
3.2917446 4.8859027 0
-2.4934923 10.719569 0
4.783373 -5.9007299 0
-6.2216361 -1.8142591 0
-12.035761 -0.04607216 0
5.5611027 -8.6893128 0
-12.910519 -4.7284477 0
-1.9409534 10.665346 0
1.3944448 8.8700764 0
5.8722444 2.2604764 0
-9.7183117 -2.8149503 0
-3.8010684 -4.0546437 0
14.269944 5.096194 0
-0.55814612 -7.6437667 0
10.077619 0.43888974 0
8.0633028 5.2572634 0
9.3008657 11.553697 0
-10.552734 -2.2580545 0
0.13855372 9.3241737 0
-0.48966759 -3.6393183 0
6.8352841 -10.618809 0
5.2642429 7.7920221 0
-10.369631 2.381942 0
-2.5817164 -6.0379935 0
1.1516967 9.9253378 0
2.4174306 -5.5337814 0
-0.47306514 4.9791455 0
2.8237631 -1.7091418 0
-0.64199966 -10.042988 0
7.1195676 0.1772237 0
-7.7827548 0.2304174 0
-10.647151 -0.80277436 0
-9.6809693 1.675438 0
-11.394245 -4.9024826 0
7.9167007 4.9085746 0
3.7705821 -4.3816311 0
0.50746928 6.1538511 0
0.61493931 10.013269 0
3.3313785 6.4576678 0
7.2124481 2.1362469 0
12.490538 4.3524486 0
-7.4938538 1.7571147 0
6.8352906 10.618814 0
-0.4906389 3.6421793 0
7.3818207 1.8008411 0
3.8759306 -2.5924769 0
9.9608946 -5.7063609 0
0.78714171 -9.2465865 0
-6.2133234 9.7309485 0
-5.4117198 -10.618112 0
-9.1590687 -5.3398016 0
0.87195908 16.520215 0
5.5981918 5.3340016 0
-9.0172524 14.785204 0
12.79559 9.3255371 0
11.50094 10.007445 0
8.5008515 1.6136312 0
-9.8775496 3.8495117 0
-8.503619 -9.3208557 0
-2.8812102 -0.37941502 0
-1.636533 -6.3566974 0
-2.2203208 2.3771856 0
2.109412 3.3455161 0
-7.6336688 -9.8811497 0
-6.2155471 -10.464171 0
-8.7805772 -7.0157864 0
8.0949436 4.3042634 0
11.558255 -4.4698409 0
5.7116326 -6.5925887 0
-1.1122881 -6.3280249 0
-1.996244 -10.926743 0
-7.9271605 -10.262271 0
-5.486738 18.881687 0
-11.794852 5.0726638 0
-0.38087071 -9.2450471 0
11.304595 6.3378807 0
-14.034348 -7.5240937 0
1.4412076 -15.079664 0
-3.9500457 -9.9575272 0
3.519427 13.528896 0
2.5103421 -8.9816179 0
-2.4095875 -0.15623982 0
1.0828339 9.4377001 0
5.3315916 9.0973893 0
0.13199011 6.9478909 0
-9.8145299 -1.6372846 0
-2.9082454 -6.4635884 0
-7.8397348 2.8700919 0
5.5146853 5.4006331 0
3.1168804 5.7778729 0
-3.5908916 13.600897 0
6.2204154 -6.4926475 0
-1.9956556 10.926911 0
-1.1123097 6.3280543 0
-5.8111088 -5.1321331 0
4.484186 -6.2032588 0
-6.4033323 -6.8954693 0
6.1423965 6.2586414 0
-7.2360488 -8.8193775 0
-10.015719 -6.7699783 0
-7.5422441 -2.0732744 0
-3.3944279 8.4636204 0
-4.4963961 4.7993618 0
-10.810081 0.95132916 0
-17.604738 5.5508505 0
-2.5007468 -3.5897613 0
8.0574701 12.706537 0
-1.373936 -12.721983 0
-9.5500871 3.3586605 0
-9.9992539 -0.93615297 0
2.2326497 1.1866229 0
15.694797 0.32895203 0
-6.0149098 -2.9338245 0
-17.909738 -0.94427996 0
-13.142346 4.8473532 0
3.9714247 -3.9625809 0
-6.8899194 6.3235419 0
1.8854768 -3.4335389 0
7.7292127 7.3019762 0
4.8370531 -9.9977527 0
-2.5822794 0.24026148 0
1.9664051 -3.978035 0
-2.4949874 6.4642694 0
3.1613057 5.5384147 0
-8.457859 2.2209509 0
-5.398386 6.4843719 0
2.2682204 8.8441963 0
6.84582 13.892294 0
0.028440228 -19.236715 0
7.6827786 -6.2745654 0
-13.64653 5.8384906 0
-9.0471648 5.4636309 0
-5.7796704 0.95397678 0
12.287931 -12.665832 0
1.5764225 -8.4506429 0
-7.0421281 10.804103 0
13.887594 -0.91684274 0
-6.6856375 2.241339 0
-9.0306136 -7.0158856 0
-3.5651519 13.666609 0
-0.77541193 7.9438838 0
2.5150353 4.5526741 0
-5.194102 -1.9842033 0
4.8370532 9.9977527 0
-5.6939651 -11.177264 0
-9.8689101 -1.5967637 0
-4.1627001 -12.00164 0
-9.4541537 8.7536418 0
2.6904149 -2.6768893 0
-7.7285436 -8.2221643 0
-1.8209227 10.516343 0
-8.4350978 7.1006629 0
-9.2144784 17.612965 0
1.0369256 2.1265289 0
6.6314604 -13.158207 0
-4.1427917 5.4303122 0
-5.7651224 0.23110691 0
-3.434002 -8.9915212 0
-0.96700026 6.6440663 0
-10.782794 -13.133671 0
2.7470537 6.7886032 0
6.5317942 4.5201198 0
-13.06853 -6.453459 0
1.38386 0.088364207 0
2.2210405 -6.7971617 0
4.133046 -4.2870405 0
-1.3826025 12.268832 0
-9.9504707 1.640284 0
-4.3228004 2.9125086 0
1.4899323 -1.2366184 0
-3.9332725 -8.2576496 0
-8.7551177 -4.7530341 0
-2.6256996 0.44369839 0
-9.810586 -0.096563691 0
7.5086738 1.4083437 0
-2.5271315 4.9331953 0
-1.377053 3.0704401 0
12.106284 -2.6952379 0
-10.293141 6.3629657 0
3.4760314 3.2449055 0
1.1076186 -9.9044778 0
-10.645932 -3.1123651 0
3.1919761 -12.726465 0
9.2003242 0.59928261 0
-9.5357433 1.786195 0
-5.3614001 -8.4100977 0
0.30675132 -9.48231 0
-1.2297098 -6.9187999 0
3.1980474 -4.8122995 0
-5.8500987 4.5649659 0
-4.670643 -5.1513644 0
-9.416606 2.628235 0
-3.9332702 8.2576439 0
1.3415304 0.74854925 0
11.641828 -4.1583507 0
2.2834741 5.7570947 0
2.1908265 2.3591052 0
-7.3194353 -7.2857309 0
9.1571907 -0.47873833 0
0.31743644 -6.1760044 0
0.052077003 -8.8816114 0
-6.8437858 8.3270872 0
6.0594101 -6.1556068 0
4.2185056 -9.4139595 0
-0.76394568 -6.9592227 0
1.4217259 9.483589 0
5.7744722 -9.4464808 0
-4.1148046 4.8314787 0
-2.8763336 11.914163 0
-11.219371 6.2845867 0
2.5942872 -10.418963 0
-8.4102959 1.9112891 0
-9.3392413 2.2128107 0
1.1346844 -0.74057912 0
-0.15847111 7.1827339 0
-6.7232111 8.5206677 0
-6.5999989 0.86630781 0
2.3148959 -6.0314232 0
11.512329 5.1745535 0
-7.9846732 -7.1946234 0
-9.7701331 -5.4744006 0
9.919571 6.4313781 0
5.5038896 -3.2934532 0
-3.923898 -2.7905365 0
7.3346606 -1.5918579 0
8.7050621 6.8449546 0
-10.010355 -0.0031059143 0
-10.066081 -0.33396556 0
-7.5544277 -6.8975408 0
-9.7070878 -1.4197004 0
0.081179517 -8.7673357 0
-9.7728724 3.1303047 0
-1.979268 -9.7852424 0
1.3637239 9.425019 0
-10.023359 -0.070234647 0
-9.9992826 0.16384091 0
7.0387019 -5.2793298 0
-6.7570465 -4.9571546 0
13.093233 -1.4726037 0
-13.745409 -10.001131 0
6.0735895 3.120154 0
10.121627 -4.9268403 0
-9.7409982 5.570446 0
-7.9838333 7.1962363 0
-10.076481 0.0875143 0
-6.240401 -8.6282366 0
4.3976039 0.21764483 0
-6.8645899 8.4012938 0
10.996297 -1.1427602 0
9.9110746 0.40804449 0
-10.425423 3.9016642 0
-9.9927648 0.015817378 0
-9.9748765 0.70952304 0
7.2149484 5.5236094 0
-12.619022 4.022801 0
-8.7425553 -3.6370369 0
-9.9067566 1.2669556 0
-9.9363365 -1.258429 0
17.680362 -11.422481 0
-9.9959692 -0.0013985144 0
-9.9816556 -0.59433923 0
-10.094002 -0.070957955 0
-10.116192 -5.629736 0
9.7386724 3.0704968 0
-0.16786919 -2.2472555 0
8.290776 7.6376171 0
3.6257243 -1.3007413 0
-5.9612029 8.8654715 0
-10.101242 -0.062168685 0
-11.475927 -4.9389452 0
-9.6325831 -0.37164952 0
-4.0686913 -9.1745323 0
-5.5606225 3.2628332 0
3.489464 -10.621243 0
-11.07008 6.8634699 0
-9.9305984 0.23983366 0
-10.220082 0.50107656 0
-9.63965 -3.0719688 0
-10.034306 7.0954479e-05 0
7.3279131 -6.0230607 0
-3.4060132 -2.1988221 0
9.5324367 -3.3755281 0
-8.4971533 5.8152056 0
-10.03057 -0.49325017 0
-10.034125 0.00050560718 0
-9.7574754 2.5806544 0
-10.180246 -0.48006342 0
-10.103215 -0.33509071 0
-2.9211326 -9.09598 0
0.69228188 4.2436911 0
-5.3601003 4.9248813 0
-4.0026333 8.6429365 0
-10.148772 -0.26578132 0
-11.472124 4.9063752 0
-4.5339695 -7.0517463 0
-8.8752509 -3.3788425 0
-0.35312147 1.2274248 0
4.7424611 5.7320687 0
-3.7886319 0.05220096 0
-10.677656 6.6415713 0
-9.9597357 -0.055741517 0
7.0396759 2.0958271 0
9.6139141 2.4921584 0
10.034808 0.0012164429 0
-10.036952 0.2274566 0
8.1260877 5.8794684 0
0.67946342 -7.0244969 0
8.1841417 -5.6577064 0
10.012841 0.4144429 0
10.034786 -0.00066381848 0
9.739418 -2.0937561 0
6.6953268 -0.23735112 0
-9.9440458 0.095711824 0
-9.5441196 -8.8049863 0
-4.1401069 0.27716064 0
-9.0933994 3.3082013 0
-0.56204064 0.84359798 0
-8.8439102 3.5543199 0
-4.2325423 6.5198599 0
-1.6537508 -7.0152608 0
0.18571292 5.1843097 0
-3.5394918 1.6811706 0
-7.4283252 -9.4585633 0
-10.453694 7.3622013 0
-9.7346906 -0.28226855 0
4.0258014 1.3555255 0
-9.974168 -1.2522384 0
-10.03694 0.015381849 0
-10.036955 -0.00055965933 0
-9.9805047 -1.1709564 0
-9.5682283 -1.4619497 0
-9.6339716 -1.3263207 0
-9.6862618 1.0693668 0
-10.036797 -0.041092677 0
-10.036952 0.00036154614 0
-10.036942 -0.015578704 0
-10.036253 0.10026618 0
2.5666717 0.70831668 0
-10.1656 -0.058489404 0
-6.7450714 -0.74371283 0
-7.2605637 -0.20119939 0
2.3823391 4.1963923 0
-2.7524492 -5.4762684 0
-1.8638976 7.5420909 0
-10.011594 0.0065835268 0
0.34983521 8.4335713 0
0.76511962 -8.1220836 0
6.0747821 3.9064408 0
-10.526962 -7.4968162 0
-9.8289508 2.0826342 0
-10.0194 0.44509065 0
9.967516 0.98391016 0
10.03777 -0.012533457 0
10.037776 0.00046995514 0
9.9783408 0.95561286 0
-9.9714182 0.81045212 0
-9.975643 0.85263725 0
-2.5039187 12.003913 0
10.037644 0.034948038 0
10.037773 -0.00029578673 0
10.037769 0.012707977 0
10.033711 -0.04632401 0
-9.9957012 -0.48227529 0
-14.657014 -4.1466528 0
-2.8220988 -7.7388163 0
5.8843245 3.4190882 0
-2.1300566 9.5857197 0
0.82408904 -7.8242039 0
-10.058319 0.027814195 0
-10.032175 0.12460352 0
-11.418851 -8.8187899 0
-8.1326096 0.034890421 0
-10.05239 -0.42201903 0
-10.251719 5.5535616 0
3.8016073 -0.98250945 0
-9.6934545 -2.7723547 0
-10.039777 0.07493356 0
-10.040016 3.0203666e-06 0
-10.040016 -3.6207639e-06 0
-10.040018 -0.0025567629 0
-9.5215361 -3.5129074 0
-9.4762177 -3.5411063 0
-9.5067476 3.5484972 0
-10.040028 -0.0033087185 0
-10.040016 4.0072368e-06 0
-10.040016 -2.5631646e-06 0
-10.039795 -0.071812172 0
-9.6311032 3.0085591 0
-10.017481 -0.35634235 0
-2.878144 -6.990839 0
-7.177906 10.699768 0
-6.0769314 1.4200958 0
-12.988016 7.3357937 0
-10.005792 -0.026380327 0
-10.623718 -0.20693889 0
-6.4493981 -10.207568 0
-10.056575 -0.02210199 0
7.3630173 0.72605808 0
-7.6983857 -7.1212103 0
-9.9265275 -1.3476377 0
9.6838216 2.4575508 0
10.040498 -0.061100723 0
10.040755 -3.0000151e-06 0
10.040755 3.0616167e-06 0
10.040767 0.0021646772 0
9.4945055 2.8567302 0
-0.73605133 11.26493 0
9.4788438 -2.8938322 0
10.040741 0.0026582164 0
10.040754 -4.1106901e-06 0
10.040755 2.647329e-06 0
10.04052 0.058553731 0
9.6199741 -2.6636536 0
-6.4568878 -0.56987869 0
-4.3228667 5.9767477 0
-9.8517162 -1.910315 0
-10.039597 0.050221273 0
-6.7161188 10.486938 0
-10.191982 0.05081061 0
-10.007621 0.0080318328 0
-10.01335 0.052189194 0
-9.988358 -0.041053909 0
-4.2992835 -2.5662915 0
7.5667118 5.6234644 0
-8.8568696 5.2088249 0
-10.035723 -0.40324649 0
-10.042368 2.1551858e-06 0
-10.042368 -3.7593709e-07 0
-10.042368 -2.8237981e-08 0
-10.042369 -6.558834e-05 0
-10.04256 0.00036002212 0
0.1861475 -8.3819798 0
-10.042808 -0.0031177514 0
-10.042371 -0.00010017735 0
-10.042368 3.3202014e-08 0
-10.042368 3.7751012e-07 0
-10.042367 -4.4130625e-06 0
-10.034629 0.43490592 0
-8.886447 -5.2446632 0
-9.7641565 2.205154 0
-1.7495849 0.26480649 0
-9.9857084 0.048573754 0
-10.012278 -0.046247301 0
-10.007711 -0.0082830489 0
-10.000031 0.010850472 0
-9.9900396 0.018376026 0
-10.160768 6.5119334 0
-7.0423283 -2.6032188 0
-9.9577566 -0.26587056 0
8.8113621 -4.1785572 0
10.036226 0.32835775 0
10.043226 3.4539291e-06 0
10.043226 3.0053577e-07 0
10.043226 -1.5381049e-11 0
10.043224 5.5671066e-05 0
10.042911 8.7444285e-05 0
-10.000678 -0.00064374541 0
10.042187 0.0018659585 0
10.043222 7.4939357e-05 0
10.043226 -1.177758e-09 0
10.043226 -3.0347354e-07 0
10.043226 -1.9428847e-06 0
10.035087 -0.35464982 0
8.8092463 4.0878966 0
-0.46368169 -10.727076 0
-4.9831994 3.863255 0
-10.171993 -5.8955287 0
-9.9404287 -0.072242006 0
-10.000029 -0.010864345 0
-10.000011 0.010838325 0
-10.009737 0.0060651357 0
-10.021719 0.00074455731 0
-10.064259 0.18009168 0
-9.9353593 -0.56762434 0
-10.039528 -0.33085966 0
-10.043518 0.0007686058 0
-10.043514 1.7002798e-07 0
-10.043514 -2.1117184e-10 0
-10.043514 1.8427092e-11 0
-10.043514 -1.5833415e-07 0
-10.043512 5.8950076e-05 0
-10.043472 -0.00034066522 0
-10.043511 9.0299206e-05 0
-10.043514 1.5161507e-07 0
-10.043514 3.349999e-11 0
-10.043514 4.1606466e-10 0
-10.043514 -1.8750299e-07 0
-10.043516 5.4222025e-05 0
-10.038981 0.34662059 0
0.3571869 9.1525269 0
-10.070632 -0.19899711 0
-10.04328 -0.014056104 0
-10.002224 -0.00085540557 0
-10.000012 -0.010833493 0
-10 0.010812468 0
-10.000017 -5.4899062e-05 0
-10.000036 2.2408251e-05 0
-10.001618 0.0045620689 0
4.0992795 10.749098 0
10.035953 0.27078549 0
10.044454 -0.00063477699 0
10.044464 -7.3043071e-08 0
10.044464 -1.8472167e-10 0
10.044464 -1.3471542e-11 0
10.044464 5.5094424e-09 0
10.044471 -5.3952194e-05 0
10.044552 0.00027731207 0
10.044466 -6.7077562e-05 0
10.044464 -1.3763962e-09 0
10.044464 -2.0447105e-11 0
10.044464 -1.1049776e-12 0
10.044464 1.1687865e-07 0
10.044461 -4.2105989e-05 0
10.038488 -0.28305001 0
2.0841841 -12.018401 0
-10.001081 -0.0079421464 0
-10.000037 -3.309607e-05 0
-10.000011 5.6541912e-05 0
-9.9999999 -0.010811949 0
-9.9999496 0.010814928 0
-9.9999394 -6.0628102e-05 0
-9.9999413 7.9325763e-06 0
-10.000101 0.00043267387 0
-7.3126217 -7.6361145 0
-10.058739 -0.0043913168 0
-10.058743 -1.0224616e-05 0
-10.058743 -1.9528221e-09 0
-10.058743 9.8145851e-13 0
-10.058743 3.9349656e-14 0
-10.058743 -3.9920574e-12 0
-10.058743 5.169725e-10 0
-10.058743 -6.8679649e-10 0
-10.058743 1.9345506e-10 0
-10.058743 -1.6936568e-11 0
-10.058743 2.8250268e-13 0
-10.058743 -1.2372206e-14 0
-10.058743 1.1938189e-09 0
-10.058743 7.6980219e-06 0
-10.05874 0.0034467215 0
-7.0978351 7.8789653 0
-10.000239 -0.00057283818 0
-9.999943 -1.1241705e-05 0
-9.9999394 6.0628187e-05 0
-9.9999496 -0.010814928 0
-10.010217 0.010216513 0
-10.010815 -5.0409402e-05 0
-10.010812 1.7393474e-06 0
-10.010896 0.0002357314 0
7.1426794 6.1104696 0
10.044581 0.0036525011 0
10.044617 8.3165333e-06 0
10.044618 1.6772386e-09 0
10.044618 3.9712159e-13 0
10.044618 -5.0214454e-14 0
10.044618 4.9514524e-12 0
10.044618 -3.2043311e-10 0
10.044618 4.8000583e-10 0
10.044618 -1.8004504e-10 0
10.044618 6.1521599e-12 0
10.044618 1.3450822e-13 0
10.044618 -2.6794716e-13 0
10.044618 -9.8511171e-10 0
10.044617 -6.2601186e-06 0
10.044576 -0.0028835942 0
6.9156123 -6.2944027 0
-10.0109 -0.00024010983 0
-10.010812 -1.7537204e-06 0
-10.010815 5.0409405e-05 0
-10.010217 -0.010216513 0
-3.5533251 7.3699204 0
-5.7386979 -5.4411668 0
7.8637767 6.1952253 0
-1.5197635 -7.6706478 0
4.7994362 -7.3662531 0
-3.3014403 -1.6469364 0
-5.4468936 -11.433189 0
-10.705127 -0.49210737 0
0.91298554 9.1512895 0
-9.8970131 1.174746 0
8.7418483 -4.819257 0
1.668627 8.8282679 0
3.8107331 8.1423272 0
-7.5722819 -2.5026226 0
-7.4648702 -7.7354303 0
-8.1208565 0.11014223 0
3.5667659 0.3473923 0
-2.7920987 -9.6431688 0
11.301595 -5.2038388 0
2.9146466 -10.952748 0
3.5920484 -0.93565383 0
-5.5830294 8.7662984 0
10.971414 -4.6445174 0
-5.4172281 8.4310031 0
-1.592175 10.716889 0
-2.6313902 -13.726701 0
14.740776 -1.5723738 0
-5.467517 -9.701813 0
-5.7222461 -2.3444275 0
-3.8192517 3.5958642 0
6.5232731 -3.764984 0
12.275965 13.543302 0
-4.1059087 12.502445 0
2.9582937 -6.9529063 0
-10.052993 -0.21976211 0
-1.5960467 2.9290264 0
9.981465 12.324026 0
9.8138342 3.812463 0
-8.9075118 -0.99485873 0
-10.303704 -0.58471033 0
-11.257046 -6.8245518 0
-8.1757779 -15.716312 0
2.6884929 0.55676324 0
-2.0987513 -6.7347855 0
4.459697 -5.3997366 0
-8.4109159 7.1640271 0
-8.4462682 -11.926366 0
-5.4844788 9.6732074 0
7.4859265 6.909707 0
-2.6313903 13.726701 0
-0.13304053 -9.3454228 0
-13.760948 -4.1150885 0
0.083828048 7.2706242 0
1.5194877 9.4075337 0
-10.532325 -8.1756228 0
-2.1290106 10.570041 0
-8.5344424 -6.6553607 0
6.1369944 -12.92306 0
6.1852355 -0.71048031 0
2.6280693 -8.6286969 0
9.2538071 -3.9838128 0
-7.1807043 2.2403834 0
13.311945 4.0062994 0
-10.10294 0.72705182 0
2.2885611 0.069849855 0
-1.6006907 -9.6086728 0
4.3444311 12.955801 0
2.5345382 15.111442 0
1.0163315 3.1479732 0
-5.2403929 -0.036682901 0
-7.2089739 3.1020253 0
-9.521804 0.68608452 0
-4.1636395 3.0283068 0
-11.130601 -5.2436989 0
-0.13803579 9.3262281 0
0.48895581 -3.6379759 0
-6.8352841 -10.618809 0
11.09749 3.429556 0
-3.7102984 -6.2527121 0
3.9511252 5.3973188 0
7.4953383 8.2431301 0
4.7726528 -1.2875095 0
4.2342241 6.7873339 0
-12.05133 -4.6591468 0
-18.046638 -0.61931802 0
-1.0343384 -9.6167358 0
2.7422742 -1.3315319 0
7.7206017 9.0924172 0
9.8203488 -2.2529699 0
5.9160509 -2.7285865 0
-11.630011 6.6485116 0
12.325965 -1.4873683 0
-2.297998 -6.425231 0
-3.0150303 -3.6878569 0
2.5325961 -5.7217365 0
0.28700504 5.4325446 0
6.07532 10.149282 0
7.192474 -7.1085379 0
-6.83529 10.618799 0
0.49078819 3.6424612 0
-13.034901 -0.68887438 0
-8.2844597 4.2333491 0
-8.928144 -5.165621 0
2.2985723 -5.3167299 0
-11.350472 5.2334637 0