# vtk DataFile Version 4.0
hesp visualization file
ASCII
DATASET UNSTRUCTURED_GRID
POINTS 32 double
2.5351651 0.83785264 4
1.818339 2.2284117 4
1.818339 3.3838986 4
2.5351651 4.7744576 4
3.3188884 -0.57782172 4
3.3705389 1.7933931 4
3.3705389 3.8189171 4
3.3188884 6.190132 4
6.8375573 -2.1215577 4
4.8964491 0.46421014 4
4.8964491 5.1481001 4
6.8375573 7.733868 4
9.1130059 -2.6938488 4
9.5586145 1.5313486 4
9.5586145 4.0809616 4
9.1130059 8.3061591 4
12.499304 -2.6938488 4
12.053696 1.5313486 4
12.053696 4.0809616 4
12.499304 8.3061591 4
14.774753 -2.1215577 4
16.715861 0.46421014 4
16.715861 5.1481001 4
14.774753 7.733868 4
18.293422 -0.57782172 4
18.241771 1.7933931 4
18.241771 3.8189171 4
18.293422 6.190132 4
19.077145 0.83785264 4
19.793971 2.2284117 4
19.793971 3.3838986 4
19.077145 4.7744576 4
CELLS 0 0
CELL_TYPES 0
POINT_DATA 32
SCALARS m double
LOOKUP_TABLE default
1
1
1
1
1
1
1
1
1
1
1
1
1
1
1
1
1
1
1
1
1
1
1
1
1
1
1
1
1
1
1
1
VECTORS v double
-10.767601 -1.523234 0
-12.086951 -0.46376254 0
-12.086951 0.46376254 0
-10.767601 1.523234 0
-12.462001 -4.6489907 0
-9.4533997 -0.028651862 0
-9.4533997 0.028651862 0
-12.462001 4.6489907 0
-6.246866 -8.7271504 0
-8.2729883 -3.1882984 0
-8.2729883 3.1882984 0
-6.246866 8.7271504 0
-3.0661276 -7.7769825 0
-1.4091606 -0.92158758 0
-1.4091606 0.92158758 0
-3.0661276 7.7769825 0
3.0661276 -7.7769825 0
1.4091606 -0.92158758 0
1.4091606 0.92158758 0
3.0661276 7.7769825 0
6.246866 -8.7271504 0
8.2729883 -3.1882984 0
8.2729883 3.1882984 0
6.246866 8.7271504 0
12.462001 -4.6489907 0
9.4533997 -0.028651862 0
9.4533997 0.028651862 0
12.462001 4.6489907 0
10.767601 -1.523234 0
12.086951 -0.46376254 0
12.086951 0.46376254 0
10.767601 1.523234 0
