# vtk DataFile Version 4.0
hesp visualization file
ASCII
DATASET UNSTRUCTURED_GRID
POINTS 32 double
-2.2360004 0.26114306 4
-3.5664012 2.2053313 4
-3.5664012 3.4069789 4
-2.2360004 5.3511672 4
-2.2935464 -2.6369916 4
-0.99443318 1.7042654 4
-0.99443318 3.9080448 4
-2.2935464 8.2493019 4
4.0287468 -6.049029 4
1.1606685 -0.96954058 4
1.1606685 6.5818508 4
4.0287468 11.661339 4
7.7309505 -6.1929595 4
8.926306 1.1185922 4
8.926306 4.493718 4
7.7309505 11.80527 4
13.88136 -6.1929595 4
12.686004 1.1185922 4
12.686004 4.493718 4
13.88136 11.80527 4
17.583563 -6.049029 4
20.451642 -0.96954058 4
20.451642 6.5818508 4
17.583563 11.661339 4
23.905857 -2.6369916 4
22.606743 1.7042654 4
22.606743 3.9080448 4
23.905857 8.2493019 4
23.848311 0.26114306 4
25.178711 2.2053313 4
25.178711 3.4069789 4
23.848311 5.3511672 4
CELLS 0 0
CELL_TYPES 0
POINT_DATA 32
SCALARS m double
LOOKUP_TABLE default
1
1
1
1
1
1
1
1
1
1
1
1
1
1
1
1
1
1
1
1
1
1
1
1
1
1
1
1
1
1
1
1
VECTORS v double
-10.531909 -1.1631689 0
-11.917617 0.43929716 0
-11.917617 -0.43929716 0
-10.531909 1.1631689 0
-12.473448 -4.5542005 0
-9.8095769 -0.26658427 0
-9.8095769 0.26658427 0
-12.473448 4.5542005 0
-6.2399229 -8.727835 0
-8.3097404 -3.1841258 0
-8.3097404 3.1841258 0
-6.2399229 8.727835 0
-3.07312 -7.7755066 0
-1.4035166 -0.91494516 0
-1.4035166 0.91494516 0
-3.07312 7.7755066 0
3.07312 -7.7755066 0
1.4035166 -0.91494516 0
1.4035166 0.91494516 0
3.07312 7.7755066 0
6.2399229 -8.727835 0
8.3097404 -3.1841258 0
8.3097404 3.1841258 0
6.2399229 8.727835 0
12.473448 -4.5542005 0
9.8095769 -0.26658427 0
9.8095769 0.26658427 0
12.473448 4.5542005 0
10.531909 -1.1631689 0
11.917617 0.43929716 0
11.917617 -0.43929716 0
10.531909 1.1631689 0
