# vtk DataFile Version 4.0
hesp visualization file
ASCII
DATASET UNSTRUCTURED_GRID
POINTS 32 double
5.9662051 1.0884091 4
5.8771333 2.2296826 4
5.8771333 3.3826276 4
5.9662051 4.5239011 4
7.2220248 0.76616839 4
6.9703839 2.0710679 4
6.9703839 3.5412424 4
7.2220248 4.8461418 4
8.9690009 0.84509294 4
7.9438713 1.881527 4
7.9438713 3.7307832 4
8.9690009 4.7672173 4
10.148796 -0.043601389 4
10.045359 1.847367 4
10.045359 3.7649433 4
10.148796 5.6559116 4
11.463515 -0.043601389 4
11.566951 1.847367 4
11.566951 3.7649433 4
11.463515 5.6559116 4
12.643309 0.84509294 4
13.668439 1.881527 4
13.668439 3.7307832 4
12.643309 4.7672173 4
14.390285 0.76616839 4
14.641926 2.0710679 4
14.641926 3.5412424 4
14.390285 4.8461418 4
15.646105 1.0884091 4
15.735177 2.2296826 4
15.735177 3.3826276 4
15.646105 4.5239011 4
CELLS 0 0
CELL_TYPES 0
POINT_DATA 32
SCALARS m double
LOOKUP_TABLE default
1
1
1
1
1
1
1
1
1
1
1
1
1
1
1
1
1
1
1
1
1
1
1
1
1
1
1
1
1
1
1
1
VECTORS v double
-9.7616699 -0.2292857 0
-10.437574 -0.07873014 0
-10.437574 0.07873014 0
-9.7616699 0.2292857 0
-9.2680049 -2.1235481 0
-12.602243 -1.0789572 0
-12.602243 1.0789572 0
-9.2680049 2.1235481 0
-6.3066539 -8.7488092 0
-11.07163 -6.3034937 0
-11.07163 6.3034937 0
-6.3066539 8.7488092 0
-3.0515846 -7.8589458 0
-1.476773 -0.9176482 0
-1.476773 0.9176482 0
-3.0515846 7.8589458 0
3.0515846 -7.8589458 0
1.476773 -0.9176482 0
1.476773 0.9176482 0
3.0515846 7.8589458 0
6.3066539 -8.7488092 0
11.07163 -6.3034937 0
11.07163 6.3034937 0
6.3066539 8.7488092 0
9.2680049 -2.1235481 0
12.602243 -1.0789572 0
12.602243 1.0789572 0
9.2680049 2.1235481 0
9.7616699 -0.2292857 0
10.437574 -0.07873014 0
10.437574 0.07873014 0
9.7616699 0.2292857 0
