# vtk DataFile Version 4.0
hesp visualization file
ASCII
DATASET UNSTRUCTURED_GRID
POINTS 1250 double
32.283742 1.5334151 4
30.127652 3.0470473 4
30.489274 3.3606237 4
30.489938 4.4898399 4
30.489937 5.6123004 4
30.489937 6.7347723 4
30.489937 7.8572343 4
30.489937 8.9796964 4
30.489937 10.102158 4
30.489937 11.22462 4
30.489937 12.347083 4
30.489937 13.469545 4
30.489937 14.592007 4
30.489937 15.714469 4
30.489937 16.836931 4
30.489937 17.959393 4
30.489937 19.081855 4
30.489937 20.204317 4
30.489937 21.326779 4
30.489937 22.449241 4
30.489937 23.571703 4
30.489938 24.694172 4
30.489274 25.823395 4
30.127652 26.136966 4
32.283742 27.650598 4
31.34343 -1.5062259 4
31.424 2.222968 4
31.614479 3.3722084 4
30.837339 4.4895968 4
30.836829 5.6123167 4
30.836829 6.7347723 4
30.836829 7.8572343 4
30.836829 8.9796964 4
30.836829 10.102158 4
30.836829 11.22462 4
30.836829 12.347083 4
30.836829 13.469545 4
30.836829 14.592007 4
30.836829 15.714469 4
30.836829 16.836931 4
30.836829 17.959393 4
30.836829 19.081855 4
30.836829 20.204317 4
30.836829 21.326779 4
30.836829 22.449241 4
30.836829 23.571704 4
30.837339 24.694416 4
31.614479 25.8118 4
31.424 26.961046 4
31.34343 30.690239 4
31.05387 1.1772794 4
31.730729 2.9321918 4
31.380318 4.5142684 4
31.823721 4.4953179 4
31.816845 5.6123029 4
31.816845 6.7347723 4
31.816845 7.8572343 4
31.816845 8.9796964 4
31.816845 10.102158 4
31.816845 11.22462 4
31.816845 12.347083 4
31.816845 13.469545 4
31.816845 14.592007 4
31.816845 15.714469 4
31.816845 16.836931 4
31.816845 17.959393 4
31.816845 19.081855 4
31.816845 20.204317 4
31.816845 21.326779 4
31.816845 22.449241 4
31.816845 23.571704 4
31.823723 24.688693 4
31.380325 24.669746 4
31.730719 26.251831 4
31.053869 28.006734 4
31.795144 -0.26893932 4
32.46113 1.0313959 4
32.164746 3.4031899 4
32.163403 4.4898701 4
32.163428 5.6123125 4
32.163428 6.7347723 4
32.163428 7.8572343 4
32.163428 8.9796964 4
32.163428 10.102158 4
32.163428 11.22462 4
32.163428 12.347083 4
32.163428 13.469545 4
32.163428 14.592007 4
32.163428 15.714469 4
32.163428 16.836931 4
32.163428 17.959393 4
32.163428 19.081855 4
32.163428 20.204317 4
32.163428 21.326779 4
32.163428 22.449241 4
32.163428 23.571703 4
32.163403 24.694143 4
32.164748 25.780794 4
32.46113 28.152617 4
31.795144 29.452953 4
33.618227 2.3508209 4
31.49482 2.5947432 4
33.14054 3.3368856 4
33.1438 4.4898191 4
33.143807 5.6123081 4
33.143807 6.7347723 4
33.143807 7.8572343 4
33.143807 8.9796964 4
33.143807 10.102158 4
33.143807 11.22462 4
33.143807 12.347083 4
33.143807 13.469545 4
33.143807 14.592007 4
33.143807 15.714469 4
33.143807 16.836931 4
33.143807 17.959393 4
33.143807 19.081855 4
33.143807 20.204317 4
33.143807 21.326779 4
33.143807 22.449241 4
33.143807 23.571703 4
33.1438 24.694195 4
33.140538 25.847154 4
31.49482 26.58927 4
33.618227 26.833192 4
31.660376 0.87842436 4
33.79149 1.8734788 4
33.490072 3.3787669 4
33.489904 4.4898602 4
33.489904 5.6123107 4
33.489904 6.7347723 4
33.489904 7.8572343 4
33.489904 8.9796964 4
33.489904 10.102158 4
33.489904 11.22462 4
33.489904 12.347083 4
33.489904 13.469545 4
33.489904 14.592007 4
33.489904 15.714469 4
33.489904 16.836931 4
33.489904 17.959393 4
33.489904 19.081855 4
33.489904 20.204317 4
33.489904 21.326779 4
33.489904 22.449241 4
33.489904 23.571703 4
33.489904 24.694153 4
33.490072 25.805235 4
33.791489 27.310533 4
31.660376 28.305589 4
32.944557 1.9719333 4
35.125291 2.941202 4
34.470607 3.3583091 4
34.470703 4.489839 4
34.470704 5.6123099 4
34.470704 6.7347723 4
34.470704 7.8572343 4
34.470704 8.9796964 4
34.470704 10.102158 4
34.470704 11.22462 4
34.470704 12.347083 4
34.470704 13.469545 4
34.470704 14.592007 4
34.470704 15.714469 4
34.470704 16.836931 4
34.470704 17.959393 4
34.470704 19.081855 4
34.470704 20.204317 4
34.470704 21.326779 4
34.470704 22.449241 4
34.470704 23.571703 4
34.470703 24.694174 4
34.470607 25.825713 4
35.125291 26.242811 4
32.944557 27.212081 4
35.810426 -0.31569307 4
34.732289 2.5077665 4
34.816299 3.3680021 4
34.816336 4.4898472 4
34.816336 5.6123103 4
34.816336 6.7347723 4
34.816336 7.8572343 4
34.816336 8.9796964 4
34.816336 10.102158 4
34.816336 11.22462 4
34.816336 12.347083 4
34.816336 13.469545 4
34.816336 14.592007 4
34.816336 15.714469 4
34.816336 16.836931 4
34.816336 17.959393 4
34.816336 19.081855 4
34.816336 20.204317 4
34.816336 21.326779 4
34.816336 22.449241 4
34.816336 23.571703 4
34.816336 24.694166 4
34.816299 25.816009 4
34.732291 26.676248 4
35.810426 29.499706 4
34.620467 1.8900965 4
35.040862 2.4716353 4
35.797289 3.3663834 4
35.797412 4.4898481 4
35.797412 5.6123102 4
35.797412 6.7347723 4
35.797412 7.8572343 4
35.797412 8.9796964 4
35.797412 10.102158 4
35.797412 11.22462 4
35.797412 12.347083 4
35.797412 13.469545 4
35.797412 14.592007 4
35.797412 15.714469 4
35.797412 16.836931 4
35.797412 17.959393 4
35.797412 19.081855 4
35.797412 20.204317 4
35.797412 21.326779 4
35.797412 22.449241 4
35.797412 23.571703 4
35.797412 24.694165 4
35.797289 25.817631 4
35.040862 26.712378 4
34.620467 27.293917 4
35.224438 1.1239941 4
36.328212 1.8035226 4
36.142796 3.3674573 4
36.142795 4.4898481 4
36.142795 5.6123102 4
36.142795 6.7347723 4
36.142795 7.8572343 4
36.142795 8.9796964 4
36.142795 10.102158 4
36.142795 11.22462 4
36.142795 12.347083 4
36.142795 13.469545 4
36.142795 14.592007 4
36.142795 15.714469 4
36.142795 16.836931 4
36.142795 17.959393 4
36.142795 19.081855 4
36.142795 20.204317 4
36.142795 21.326779 4
36.142795 22.449241 4
36.142795 23.571703 4
36.142795 24.694165 4
36.142796 25.816556 4
36.328212 27.380491 4
35.224438 28.060019 4
36.347073 1.1240871 4
36.91483 2.5194443 4
37.123278 3.3673397 4
37.12328 4.4898483 4
37.12328 5.6123102 4
37.12328 6.7347723 4
37.12328 7.8572343 4
37.12328 8.9796964 4
37.12328 10.102158 4
37.12328 11.22462 4
37.12328 12.347083 4
37.12328 13.469545 4
37.12328 14.592007 4
37.12328 15.714469 4
37.12328 16.836931 4
37.12328 17.959393 4
37.12328 19.081855 4
37.12328 20.204317 4
37.12328 21.326779 4
37.12328 22.449241 4
37.12328 23.571703 4
37.12328 24.694165 4
37.123278 25.816674 4
36.91483 26.664569 4
36.347073 28.059926 4
37.469544 1.1240533 4
37.469513 2.2449406 4
37.469313 3.367386 4
37.469313 4.4898482 4
37.469313 5.6123102 4
37.469313 6.7347723 4
37.469313 7.8572343 4
37.469313 8.9796964 4
37.469313 10.102158 4
37.469313 11.22462 4
37.469313 12.347083 4
37.469313 13.469545 4
37.469313 14.592007 4
37.469313 15.714469 4
37.469313 16.836931 4
37.469313 17.959393 4
37.469313 19.081855 4
37.469313 20.204317 4
37.469313 21.326779 4
37.469313 22.449241 4
37.469313 23.571703 4
37.469313 24.694165 4
37.469313 25.816627 4
37.469513 26.939073 4
37.469544 28.05996 4
38.592007 1.1240526 4
38.592007 2.2449327 4
38.592006 3.3673861 4
38.592006 4.4898482 4
38.592006 5.6123102 4
38.592006 6.7347723 4
38.592006 7.8572343 4
38.592006 8.9796964 4
38.592006 10.102158 4
38.592006 11.22462 4
38.592006 12.347083 4
38.592006 13.469545 4
38.592006 14.592007 4
38.592006 15.714469 4
38.592006 16.836931 4
38.592006 17.959393 4
38.592006 19.081855 4
38.592006 20.204317 4
38.592006 21.326779 4
38.592006 22.449241 4
38.592006 23.571703 4
38.592006 24.694165 4
38.592006 25.816627 4
38.592007 26.939081 4
38.592007 28.059961 4
39.714469 1.1240526 4
39.714469 2.2449326 4
39.714469 3.3673861 4
39.714469 4.4898482 4
39.714469 5.6123102 4
39.714469 6.7347723 4
39.714469 7.8572343 4
39.714469 8.9796964 4
39.714469 10.102158 4
39.714469 11.22462 4
39.714469 12.347083 4
39.714469 13.469545 4
39.714469 14.592007 4
39.714469 15.714469 4
39.714469 16.836931 4
39.714469 17.959393 4
39.714469 19.081855 4
39.714469 20.204317 4
39.714469 21.326779 4
39.714469 22.449241 4
39.714469 23.571703 4
39.714469 24.694165 4
39.714469 25.816627 4
39.714469 26.939081 4
39.714469 28.059961 4
40.836931 1.1240526 4
40.836931 2.2449326 4
40.836931 3.3673861 4
40.836931 4.4898482 4
40.836931 5.6123102 4
40.836931 6.7347723 4
40.836931 7.8572343 4
40.836931 8.9796964 4
40.836931 10.102158 4
40.836931 11.22462 4
40.836931 12.347083 4
40.836931 13.469545 4
40.836931 14.592007 4
40.836931 15.714469 4
40.836931 16.836931 4
40.836931 17.959393 4
40.836931 19.081855 4
40.836931 20.204317 4
40.836931 21.326779 4
40.836931 22.449241 4
40.836931 23.571703 4
40.836931 24.694165 4
40.836931 25.816627 4
40.836931 26.939081 4
40.836931 28.059961 4
41.959393 1.1240526 4
41.959393 2.2449326 4
41.959393 3.3673861 4
41.959393 4.4898482 4
41.959393 5.6123102 4
41.959393 6.7347723 4
41.959393 7.8572343 4
41.959393 8.9796964 4
41.959393 10.102158 4
41.959393 11.22462 4
41.959393 12.347083 4
41.959393 13.469545 4
41.959393 14.592007 4
41.959393 15.714469 4
41.959393 16.836931 4
41.959393 17.959393 4
41.959393 19.081855 4
41.959393 20.204317 4
41.959393 21.326779 4
41.959393 22.449241 4
41.959393 23.571703 4
41.959393 24.694165 4
41.959393 25.816627 4
41.959393 26.939081 4
41.959393 28.059961 4
43.081855 1.1240526 4
43.081855 2.2449326 4
43.081855 3.3673861 4
43.081855 4.4898482 4
43.081855 5.6123102 4
43.081855 6.7347723 4
43.081855 7.8572343 4
43.081855 8.9796964 4
43.081855 10.102158 4
43.081855 11.22462 4
43.081855 12.347083 4
43.081855 13.469545 4
43.081855 14.592007 4
43.081855 15.714469 4
43.081855 16.836931 4
43.081855 17.959393 4
43.081855 19.081855 4
43.081855 20.204317 4
43.081855 21.326779 4
43.081855 22.449241 4
43.081855 23.571703 4
43.081855 24.694165 4
43.081855 25.816627 4
43.081855 26.939081 4
43.081855 28.059961 4
44.204317 1.1240526 4
44.204317 2.2449326 4
44.204317 3.3673861 4
44.204317 4.4898482 4
44.204317 5.6123102 4
44.204317 6.7347723 4
44.204317 7.8572343 4
44.204317 8.9796964 4
44.204317 10.102158 4
44.204317 11.22462 4
44.204317 12.347083 4
44.204317 13.469545 4
44.204317 14.592007 4
44.204317 15.714469 4
44.204317 16.836931 4
44.204317 17.959393 4
44.204317 19.081855 4
44.204317 20.204317 4
44.204317 21.326779 4
44.204317 22.449241 4
44.204317 23.571703 4
44.204317 24.694165 4
44.204317 25.816627 4
44.204317 26.939081 4
44.204317 28.059961 4
45.326779 1.1240526 4
45.326779 2.2449326 4
[...]
POINT_DATA 1250
SCALARS m double
LOOKUP_TABLE default
1
1
1
1
1
1
1
1
1
1
1
1
1
1
1
1
1
1
1
1
1
1
1
1
1
1
1
1
1
1
1
1
1
1
1
1
1
1
1
1
1
1
1
1
1
1
1
1
1
1
1
1
1
1
1
1
1
1
1
1
1
1
1
1
1
1
1
1
1
1
1
1
1
1
1
1
1
1
1
1
1
1
1
1
1
1
1
1
1
1
1
1
1
1
1
1
1
1
1
1
1
1
1
1
1
1
1
1
1
1
1
1
1
1
1
1
1
1
1
1
1
1
1
1
1
1
1
1
1
1
1
1
1
1
1
1
1
1
1
1
1
1
1
1
1
1
1
1
1
1
1
1
1
1
1
1
1
1
1
1
1
1
1
1
1
1
1
1
1
1
1
1
1
1
1
1
1
1
1
1
1
1
1
1
1
1
1
1
1
1
1
1
1
1
1
1
1
1
1
1
1
1
1
1
1
1
1
1
1
1
1
1
1
1
1
1
1
1
1
1
1
1
1
1
1
1
1
1
1
1
1
1
1
1
1
1
1
1
1
1
1
1
1
1
1
1
1
1
1
1
1
1
1
1
1
1
1
1
1
1
1
1
1
1
1
1
1
1
1
1
1
1
1
1
1
1
1
1
1
1
1
1
1
1
1
1
1
1
1
1
1
1
1
1
1
1
1
1
1
1
1
1
1
1
1
1
1
1
1
1
1
1
1
1
1
1
1
1
1
1
1
1
1
1
1
1
1
1
1
1
1
1
1
1
1
1
1
1
1
1
1
1
1
1
1
1
1
1
1
1
1
1
1
1
1
1
1
1
1
1
1
1
1
1
1
1
1
1
1
1
1
1
1
1
1
1
1
1
1
1
1
1
1
1
1
1
1
1
1
1
1
1
1
1
1
1
1
1
1
1
1
1
1
1
1
1
1
1
1
1
1
1
1
1
1
1
1
1
1
1
1
1
1
1
1
1
1
1
1
1
1
1
1
1
1
1
1
1
1
1
1
1
1
1
1
1
1
1
1
1
1
1
1
1
1
1
1
1
1
1
1
1
1
1
1
1
1
1
1
1
1
1
1
1
1
1
1
1
1
1
1
1
1
1
1
1
1
1
1
1
1
1
1
1
1
1
1
1
1
1
1
1
1
1
1
1
1
1
1
1
1
1
1
1
1
1
1
1
1
1
1
1
1
1
1
1
1
1
1
1
1
1
1
1
1
1
1
1
1
1
1
1
1
1
1
1
1
1
1
1
1
1
1
1
1
1
1
1
1
1
1
1
1
1
1
1
1
1
1
1
1
1
1
1
1
1
1
1
1
1
1
1
1
1
1
1
1
1
1
1
1
1
1
1
1
1
1
1
1
1
1
1
1
1
1
1
1
1
1
1
1
1
1
1
1
1
1
1
1
1
1
1
1
1
1
1
1
1
1
1
1
1
1
1
1
1
1
1
1
1
1
1
1
1
1
1
1
1
1
1
1
1
1
1
1
1
1
1
1
1
1
1
1
1
1
1
1
1
1
1
1
1
1
1
1
1
1
1
1
1
1
1
1
1
1
1
1
1
1
1
1
1
1
1
1
1
1
1
1
1
1
1
1
1
1
1
1
1
1
1
1
1
1
1
1
1
1
1
1
1
1
1
1
1
1
1
1
1
1
1
1
1
1
1
1
1
1
1
1
1
1
1
1
1
1
1
1
1
1
1
1
1
1
1
1
1
1
1
1
1
1
1
1
1
1
1
1
1
1
1
1
1
1
1
1
1
1
1
1
1
1
1
1
1
1
1
1
1
1
1
1
1
1
1
1
1
1
1
1
1
1
1
1
1
1
1
1
1
1
1
1
1
1
1
1
1
1
1
1
1
1
1
1
1
1
1
1
1
1
1
1
1
1
1
1
1
1
1
1
1
1
1
1
1
1
1
1
1
1
1
1
1
1
1
1
1
1
1
1
1
1
1
1
1
1
1
1
1
1
1
1
1
1
1
1
1
1
1
1
1
1
1
1
1
1
1
1
1
1
1
1
1
1
1
1
1
1
1
1
1
1
1
1
1
1
1
1
1
1
1
1
1
1
1
1
1
1
1
1
1
1
1
1
1
1
1
1
1
1
1
1
1
1
1
1
1
1
1
1
1
1
1
1
1
1
1
1
1
1
1
1
1
1
1
1
1
1
1
1
1
1
1
1
1
1
1
1
1
1
1
1
1
1
1
1
1
1
1
1
1
1
1
1
1
1
1
1
1
1
1
1
1
1
1
1
1
1
1
1
1
1
1
1
1
1
1
1
1
1
1
1
1
1
1
1
1
1
1
1
1
1
1
1
1
1
1
1
1
1
1
1
1
1
1
1
1
1
1
1
1
1
1
1
1
1
1
1
1
1
1
1
1
1
1
1
1
1
1
1
1
1
1
1
1
1
1
1
1
1
1
1
1
1
1
1
1
1
1
1
1
1
1
1
1
1
1
1
1
1
1
1
1
1
1
1
1
1
1
1
1
1
1
1
1
1
1
1
1
1
1
1
1
1
1
1
1
1
1
1
1
1
1
1
1
1
1
1
1
1
1
1
1
1
1
1
1
1
1
1
1
1
1
1
1
1
1
1
1
1
1
1
1
1
1
1
1
1
1
1
1
1
1
1
1
1
1
1
1
1
1
1
1
1
1
1
1
1
1
1
1
1
1
1
1
1
1
1
1
1
1
1
1
1
1
1
1
1
1
1
1
1
1
1
1
1
1
1
1
1
1
1
1
1
1
1
1
1
1
1
1
1
1
1
1
1
1
1
1
1
1
1
1
1
1
1
1
1
1
1
1
1
1
1
1
1
1
1
1
1
1
VECTORS v double
9.7654112 1.6257634 0
-5.0418482 7.3827044 0
9.958622 -0.16186857 0
10.045404 -0.00010784576 0
10.045163 -0.00023500318 0
10.045156 -1.512397e-07 0
10.045156 -9.0022152e-12 0
10.045156 4.1935036e-09 0
10.045156 -1.0987265e-13 0
10.045156 -6.7230996e-13 0
10.045156 4.1153205e-09 0
10.045156 4.7268782e-08 0
10.045156 4.1128879e-06 0
10.045156 -4.7781912e-08 0
10.045156 2.6169384e-12 0
10.045156 1.115525e-12 0
10.045156 -4.6249713e-15 0
10.045156 -2.9436062e-15 0
10.045156 -2.0976437e-12 0
10.045156 1.6864136e-07 0
10.045163 1.2273843e-05 0
10.045404 8.4752401e-05 0
9.9586195 0.16195514 0
-5.0419094 -7.382711 0
9.7654115 -1.625763 0
-2.6309827 -13.726752 0
8.0977521 -2.8209827 0
10.07547 -0.013937826 0
-10.007652 -0.013581214 0
-10.044331 0.0001062351 0
-10.044351 -5.7307058e-07 0
-10.044351 1.9140208e-11 0
-10.044351 -1.0743977e-09 0
-10.044351 1.0339232e-14 0
-10.044351 -6.2750239e-13 0
-10.044351 -1.0436147e-09 0
-10.044351 -2.4352393e-08 0
-10.044351 -2.699582e-06 0
-10.044351 2.4643998e-08 0
-10.044351 4.5008252e-13 0
-10.044351 1.2572223e-12 0
-10.044351 -4.5040704e-15 0
-10.044351 -5.7613406e-15 0
-10.044351 -4.08448e-12 0
-10.044351 5.6207263e-07 0
-10.044331 5.0877792e-05 0
-10.007655 0.013575987 0
10.075464 0.01387612 0
8.097748 2.8209901 0
-2.6309827 13.726752 0
-0.47511158 -5.2197801 0
0.57269149 -3.3438493 0
-5.5945634 15.993431 0
10.506039 0.42297984 0
10.046346 -0.00022893592 0
10.04636 -7.0968048e-07 0
10.046361 -5.284623e-13 0
10.046361 8.9040994e-10 0
10.046361 -1.0357975e-14 0
10.046361 -3.8811579e-13 0
10.046361 8.649291e-10 0
10.046361 2.1667543e-08 0
10.046361 2.4975684e-06 0
10.046361 -2.1942843e-08 0
10.046361 1.2974781e-12 0
10.046361 7.4295814e-13 0
10.046361 -4.3755557e-15 0
10.046361 -7.4257711e-15 0
10.046361 -5.5332415e-12 0
10.04636 7.2018819e-07 0
10.046346 8.1037966e-05 0
10.506235 -0.42317105 0
-5.5946226 -15.993259 0
0.5725606 3.3439796 0
-0.47511411 5.2197783 0
-0.34419737 -3.8302668 0
-6.9758339 -10.497794 0
-9.9773313 0.79344058 0
-10.045416 0.00071629841 0
-10.044246 3.0479197e-05 0
-10.04423 -2.961676e-07 0
-10.04423 1.5711706e-11 0
-10.04423 2.6809558e-12 0
-10.04423 -4.908734e-15 0
-10.04423 -4.0174936e-13 0
-10.04423 2.3105859e-12 0
-10.04423 -3.260296e-09 0
-10.04423 -7.1883966e-07 0
-10.04423 3.2977929e-09 0
-10.04423 6.5902272e-13 0
-10.04423 7.7882063e-13 0
-10.04423 -4.2448702e-15 0
-10.04423 -5.3965059e-15 0
-10.04423 -3.9633277e-12 0
-10.04423 2.9360369e-07 0
-10.044246 2.5828086e-05 0
-10.045416 -0.00072735135 0
-9.9772803 -0.79410766 0
-6.9758382 10.497794 0
-0.34419728 3.8302668 0
5.4136514 5.7608935 0
-9.6849287 2.2560972 0
9.9905048 -0.73076637 0
10.047413 -0.00066684929 0
10.047584 -5.4441428e-05 0
10.047588 2.8599052e-09 0
10.047588 -1.8568659e-12 0
10.047588 -4.5899406e-13 0
10.047588 4.347146e-15 0
10.047588 -2.333554e-13 0
10.047588 -4.8653128e-13 0
10.047588 2.7226896e-09 0
10.047588 6.2723162e-07 0
10.047588 -2.7724506e-09 0
10.047588 5.2994024e-13 0
10.047588 4.6246348e-13 0
10.047588 -4.1158869e-15 0
10.047588 -2.9621926e-16 0
10.047588 -1.0166679e-12 0
10.047588 -1.4105786e-10 0
10.047584 3.9261546e-06 0
10.047413 0.00067735651 0
9.9904531 0.73138923 0
-9.6849243 -2.2561163 0
5.4136546 -5.7609006 0
-9.9742847 -1.0240031 0
-8.2254749 -5.1226856 0
-10.040118 0.24533812 0
-10.044813 0.00025226854 0
-10.044819 9.5355366e-06 0
-10.044819 1.1880395e-10 0
-10.044819 4.4217782e-12 0
-10.044819 -5.3844098e-13 0
-10.044819 4.4516762e-15 0
-10.044819 -2.7235316e-13 0
-10.044819 -6.2317963e-13 0
-10.044819 6.1571857e-12 0
-10.044819 -6.3140953e-08 0
-10.044819 -1.3183398e-11 0
-10.044819 5.0942566e-13 0
-10.044819 5.4066209e-13 0
-10.044819 -3.9869055e-15 0
-10.044819 -1.4706697e-17 0
-10.044819 -3.1254596e-13 0
-10.044819 -1.1397002e-10 0
-10.044819 8.2168987e-08 0
-10.044813 -0.00025738489 0
-10.040111 -0.24557959 0
-8.2254983 5.1226521 0
-9.9742847 1.0240031 0
-9.0238928 4.1297639 0
8.0670568 5.170465 0
10.047611 -0.2230355 0
10.048509 -0.00023464075 0
10.048506 -8.3622864e-06 0
10.048506 2.530808e-10 0
10.048506 -3.9819148e-13 0
10.048506 -4.3840385e-13 0
10.048506 4.3311601e-15 0
10.048506 -2.2206811e-13 0
10.048506 -4.3493135e-13 0
10.048506 -1.5289369e-12 0
10.048506 5.3581906e-08 0
10.048506 -1.2407517e-12 0
10.048506 4.4032029e-13 0
10.048506 4.4053069e-13 0
10.048506 -3.8566847e-15 0
10.048506 -1.7119568e-17 0
10.048506 1.2470792e-15 0
10.048506 1.1643531e-11 0
10.048506 3.2196172e-08 0
10.048509 0.0002392703 0
10.047605 0.22325149 0
8.0670579 -5.170463 0
-9.0238914 -4.1297482 0
4.8370527 -9.9978057 0
7.1660756 6.3333062 0
-10.039298 -0.020767285 0
-10.045874 -3.5108752e-05 0
-10.045873 6.4196428e-07 0
-10.045873 9.198615e-11 0
-10.045873 7.4330787e-13 0
-10.045873 -1.3149986e-13 0
-10.045873 4.1860526e-15 0
-10.045873 -6.8510804e-14 0
-10.045873 -1.3534276e-13 0
-10.045873 -7.8309963e-13 0
-10.045873 2.0839754e-10 0
-10.045873 -3.971618e-13 0
-10.045873 1.2465243e-13 0
-10.045873 1.3353862e-13 0
-10.045873 -3.7273793e-15 0
-10.045873 -1.7546427e-17 0
-10.045873 -2.931329e-15 0
-10.045873 -2.9400123e-11 0
-10.045873 -3.530019e-08 0
-10.045874 3.4095365e-05 0
-10.039298 0.020726768 0
7.1660937 -6.3332798 0
4.8370527 9.9978057 0
-5.83885 6.2008637 0
-9.8150722 2.499252 0
10.045109 -0.02607127 0
10.048884 -7.6547137e-06 0
10.048891 -5.3031509e-07 0
10.048891 1.2716554e-11 0
10.048891 -6.9606411e-14 0
10.048891 -1.726938e-13 0
10.048891 4.0389518e-15 0
10.048891 -8.8973232e-14 0
10.048891 -1.7105863e-13 0
10.048891 -2.698027e-13 0
10.048891 -2.8188506e-13 0
10.048891 2.3964788e-13 0
10.048891 1.710592e-13 0
10.048891 1.7458652e-13 0
10.048891 -3.5973986e-15 0
10.048891 -1.4351174e-17 0
10.048891 6.079404e-16 0
10.048891 -3.5990384e-12 0
10.048891 7.9334838e-09 0
10.048884 8.5327431e-06 0
10.045109 0.026105627 0
-9.8150692 -2.4992511 0
-5.83885 -6.2008638 0
-10.00259 0.0047778079 0
-5.4462474 -9.3659303 0
-10.046988 0.0014730531 0
-10.047039 -4.384795e-06 0
-10.047036 1.2288893e-09 0
-10.047036 6.5690794e-12 0
-10.047036 2.3562289e-14 0
-10.047036 -1.1816284e-13 0
-10.047036 3.8924995e-15 0
-10.047036 -6.1606775e-14 0
-10.047036 -1.1656752e-13 0
-10.047036 -1.7307066e-13 0
-10.047036 -2.3153769e-13 0
-10.047036 1.730706e-13 0
-10.047036 1.1657792e-13 0
-10.047036 1.1997635e-13 0
-10.047036 -3.4676987e-15 0
-10.047036 -1.3659775e-17 0
-10.047036 -7.4529304e-16 0
-10.047036 -9.0031006e-13 0
-10.047036 -2.9711886e-09 0
-10.047039 4.3134597e-06 0
-10.046988 -0.001475423 0
-5.4462494 9.3659288 0
-10.00259 -0.0047778081 0
-10.000324 0.0080780746 0
5.1948608 7.3877062 0
10.0469 -0.001530616 0
10.04701 1.4848828e-06 0
10.047011 -6.7073542e-10 0
10.047011 2.4468846e-13 0
10.047011 -6.7339332e-15 0
10.047011 -2.8361397e-14 0
10.047011 3.7463372e-15 0
10.047011 -1.661048e-14 0
10.047011 -2.6823448e-14 0
10.047011 -3.7028937e-14 0
10.047011 -5.6743778e-14 0
10.047011 4.0016814e-14 0
10.047011 2.6834073e-14 0
10.047011 3.0104493e-14 0
10.047011 -3.3382894e-15 0
10.047011 -1.2501846e-17 0
10.047011 1.5725988e-16 0
10.047011 -8.451714e-14 0
10.047011 4.2063857e-10 0
10.04701 -1.4240448e-06 0
10.0469 0.0015326621 0
5.1948629 -7.3877052 0
-10.000324 -0.0080780731 0
-10.000045 0.0053496539 0
-10.003816 0.0013719069 0
-10.048071 -4.5649287e-05 0
-10.048024 -5.7758161e-07 0
-10.048024 1.0230426e-10 0
-10.048024 -1.1289716e-13 0
-10.048024 5.9169855e-17 0
-10.048024 -1.5208416e-15 0
-10.048024 3.6035765e-15 0
-10.048024 -3.0957737e-15 0
-10.048024 -4.0197501e-17 0
-10.048024 3.0223393e-15 0
-10.048024 -3.0600682e-15 0
-10.048024 -1.4763339e-16 0
-10.048024 5.0376391e-17 0
-10.048024 3.1955065e-15 0
-10.048024 -3.2113566e-15 0
-10.048024 -1.1404896e-17 0
-10.048024 8.765942e-17 0
-10.048024 1.2751793e-13 0
-10.048024 -1.0420356e-10 0
-10.048024 5.7779538e-07 0
-10.048071 4.5657263e-05 0
-10.003816 -0.001371908 0
-10.000045 -0.0053496539 0
-10.000002 0.0053112113 0
-10.000009 2.2908296e-05 0
-10.000018 3.9663495e-07 0
-10.000018 -1.1561268e-10 0
-10.000018 9.9770389e-13 0
-10.000018 9.3801436e-16 0
-10.000018 -5.0610994e-18 0
-10.000018 -1.5141919e-15 0
-10.000018 3.558983e-15 0
-10.000018 -3.0628798e-15 0
-10.000018 -5.1345156e-17 0
-10.000018 2.9673567e-15 0
-10.000018 -3.0456984e-15 0
-10.000018 -1.2806662e-16 0
-10.000018 6.0921428e-17 0
-10.000018 3.1674645e-15 0
-10.000018 -3.1718465e-15 0
-10.000018 -1.094735e-17 0
-10.000018 1.2269236e-16 0
-10.000018 1.8775063e-15 0
-10.000018 -1.0042116e-12 0
-10.000018 1.1546999e-10 0
-10.000018 -3.9663422e-07 0
-10.000009 -2.2908296e-05 0
-10.000002 -0.0053112113 0
-10 0.0053100121 0
-10 2.0415814e-05 0
-10 -1.5807628e-07 0
-10 -2.0955087e-10 0
-10 8.5762446e-13 0
-10 9.1600747e-16 0
-10 -5.0838754e-18 0
-10 -1.5134657e-15 0
-10 3.5586743e-15 0
-10 -3.0633022e-15 0
-10 -5.1385866e-17 0
-10 2.967242e-15 0
-10 -3.0455927e-15 0
-10 -1.2794513e-16 0
-10 6.0957861e-17 0
-10 3.1672734e-15 0
-10 -3.1715342e-15 0
-10 -1.0947024e-17 0
-10 1.2262747e-16 0
-10 1.8808922e-15 0
-10 -8.594795e-13 0
-10 2.0954992e-10 0
-10 1.5807628e-07 0
-10 -2.0415814e-05 0
-10 -0.0053100121 0
-10 0.0053100121 0
-10 2.0415814e-05 0
-10 -1.5807497e-07 0
-10 -2.0940011e-10 0
-10 8.5764879e-13 0
-10 9.1614443e-16 0
-10 -5.0524992e-18 0
-10 -1.513417e-15 0
-10 3.5583512e-15 0
-10 -3.0633881e-15 0
-10 -5.1601347e-17 0
-10 2.9671567e-15 0
-10 -3.0456403e-15 0
-10 -1.2815762e-16 0
-10 6.1251033e-17 0
-10 3.1672089e-15 0
-10 -3.1715026e-15 0
-10 -1.0961533e-17 0
-10 1.2263503e-16 0
-10 1.8809394e-15 0
-10 -8.5950466e-13 0
-10 2.0939916e-10 0
-10 1.5807497e-07 0
-10 -2.0415814e-05 0
-10 -0.0053100121 0
-10 0.0053100121 0
-10 2.0415814e-05 0
-10 -1.5807497e-07 0
-10 -2.0940011e-10 0
-10 8.5764863e-13 0
-10 9.1614058e-16 0
-10 -4.9609455e-18 0
-10 -1.5137106e-15 0
-10 3.5584877e-15 0
-10 -3.0630208e-15 0
-10 -5.1356224e-17 0
-10 2.9670173e-15 0
-10 -3.0449114e-15 0
-10 -1.2821197e-16 0
-10 6.1395119e-17 0
-10 3.1671426e-15 0
-10 -3.1713527e-15 0
-10 -1.0949459e-17 0
-10 1.2256671e-16 0
-10 1.8809976e-15 0
-10 -8.5950462e-13 0
-10 2.0939916e-10 0
-10 1.5807497e-07 0
-10 -2.0415814e-05 0
-10 -0.0053100121 0
-10 0.0053100121 0
-10 2.0415814e-05 0
-10 -1.5807497e-07 0
-10 -2.0940011e-10 0
-10 8.5764863e-13 0
-10 9.1598765e-16 0
-10 -5.0583223e-18 0
-10 -1.5140807e-15 0
-10 3.5586674e-15 0
-10 -3.0625049e-15 0
-10 -5.1315944e-17 0
-10 2.9670841e-15 0
-10 -3.0452888e-15 0
-10 -1.2812506e-16 0
-10 6.0827692e-17 0
-10 3.1671646e-15 0
-10 -3.1714556e-15 0
-10 -1.0946684e-17 0
-10 1.225421e-16 0
-10 1.8810714e-15 0
-10 -8.5950429e-13 0
-10 2.0939916e-10 0
-10 1.5807497e-07 0
-10 -2.0415814e-05 0
-10 -0.0053100121 0
-10 0.0053100121 0
-10 2.0415814e-05 0
-10 -1.5807497e-07 0
-10 -2.0940011e-10 0
-10 8.5764874e-13 0
-10 9.1597263e-16 0
-10 -5.0687307e-18 0
-10 -1.5133e-15 0
-10 3.5586674e-15 0
-10 -3.0632855e-15 0
-10 -5.1315944e-17 0
-10 2.9673443e-15 0
-10 -3.0452888e-15 0
-10 -1.2812506e-16 0
-10 6.0827692e-17 0
-10 3.1671646e-15 0
-10 -3.1714556e-15 0
-10 -1.0946684e-17 0
-10 1.225421e-16 0
-10 1.8810709e-15 0
-10 -8.5950433e-13 0
-10 2.0939916e-10 0
-10 1.5807497e-07 0
-10 -2.0415814e-05 0
-10 -0.0053100121 0
-10 0.0053100121 0
-10 2.0415814e-05 0
-10 -1.5807497e-07 0
-10 -2.0940011e-10 0
-10 8.5764875e-13 0
-10 9.1597724e-16 0
-10 -5.0704654e-18 0
-10 -1.5133e-15 0
-10 3.5586674e-15 0
-10 -3.0632855e-15 0
-10 -5.1315944e-17 0
-10 2.9673443e-15 0
-10 -3.045549e-15 0
-10 -1.2812506e-16 0
-10 6.0827692e-17 0
-10 3.1671646e-15 0
-10 -3.1714556e-15 0
-10 -1.0946684e-17 0
-10 1.225421e-16 0
-10 1.8810714e-15 0
-10 -8.5950433e-13 0
-10 2.0939916e-10 0
-10 1.5807497e-07 0
-10 -2.0415814e-05 0
-10 -0.0053100121 0
-10 0.0053100121 0
-10 2.0415814e-05 0
-10 -1.5807497e-07 0
-10 -2.0940011e-10 0
-10 8.5764838e-13 0
-10 9.1621874e-16 0
-10 -4.9769505e-18 0
-10 -1.5136728e-15 0
-10 3.5586141e-15 0
-10 -3.0632564e-15 0
-10 -5.1527393e-17 0
-10 2.9671651e-15 0
-10 -3.0453864e-15 0
-10 -1.2828997e-16 0
-10 6.1131176e-17 0
-10 3.1669665e-15 0
-10 -3.1713025e-15 0
-10 -1.0964308e-17 0
-10 1.2257625e-16 0
-10 1.8807253e-15 0
-10 -8.5950436e-13 0
-10 2.0939916e-10 0
-10 1.5807497e-07 0
-10 -2.0415814e-05 0
-10 -0.0053100121 0
-10 0.0053100121 0
-10 2.0415814e-05 0
-10 -1.5807497e-07 0
-10 -2.0940011e-10 0
-10 8.5764849e-13 0
-10 9.1642178e-16 0
-10 -5.0488308e-18 0
-10 -1.514367e-15 0
-10 3.5589942e-15 0
-10 -3.06339e-15 0
-10 -5.1439539e-17 0
-10 2.9673702e-15 0
-10 -3.0460473e-15 0
-10 -1.2749785e-16 0
-10 6.1306179e-17 0
-10 3.1671709e-15 0
-10 -3.1715611e-15 0
-10 -1.0952489e-17 0
-10 1.227485e-16 0
-10 1.8798463e-15 0
-10 -8.5950456e-13 0
-10 2.0939916e-10 0
-10 1.5807497e-07 0
-10 -2.0415814e-05 0
-10 -0.0053100121 0
-10 0.0053100121 0
-10 2.0415814e-05 0
-10 -1.5807497e-07 0
-10 -2.0940001e-10 0
-10 8.5764284e-13 0
-10 9.1614291e-16 0
-10 -4.9816463e-18 0
-10 -1.513521e-15 0
-10 3.5586659e-15 0
-10 -3.0631157e-15 0
-10 -5.1227393e-17 0
-10 2.9675555e-15 0
-10 -3.0453185e-15 0
-10 -1.2841763e-16 0
-10 6.105433e-17 0
-10 3.167097e-15 0
-10 -3.1718772e-15 0
-10 -1.0954126e-17 0
-10 1.2311916e-16 0
-10 1.8804735e-15 0
-10 -8.5950445e-13 0
-10 2.0939906e-10 0
-10 1.5807497e-07 0
-10 -2.0415814e-05 0
-10 -0.0053100121 0
-9.9999998 0.005310015 0
-9.9999998 2.0415758e-05 0
-9.9999998 -1.580779e-07 0
-9.9999998 -2.0939667e-10 0
-9.9999998 8.5765682e-13 0
-9.9999998 9.1604013e-16 0
-9.9999998 -4.8684018e-18 0
-9.9999998 -1.5128461e-15 0
-9.9999998 3.558599e-15 0
-9.9999998 -3.062834e-15 0
-9.9999998 -5.0744989e-17 0
-9.9999998 2.9682175e-15 0
-9.9999998 -3.0438111e-15 0
-9.9999998 -1.2960237e-16 0
-9.9999998 6.0583679e-17 0
-9.9999998 3.1664446e-15 0
-9.9999998 -3.1718458e-15 0
-9.9999998 -1.0953551e-17 0
-9.9999998 1.2308171e-16 0
-9.9999998 1.880974e-15 0
-9.9999998 -8.5952116e-13 0
-9.9999998 2.0939565e-10 0
-9.9999998 1.580779e-07 0
-9.9999998 -2.0415758e-05 0
-9.9999998 -0.005310015 0
-10.000022 0.0053104444 0
-10.00002 2.0467457e-05 0
-10.00002 -1.5817593e-07 0
-10.00002 -2.0974458e-10 0
-10.00002 8.582602e-13 0
-10.00002 9.1768845e-16 0
-10.00002 -5.2014124e-18 0
-10.00002 -1.515185e-15 0
-10.00002 3.5588472e-15 0
-10.00002 -3.063728e-15 0
-10.00002 -5.2404027e-17 0
-10.00002 2.9660192e-15 0
-10.00002 -3.0483676e-15 0
-10.00002 -1.2650118e-16 0
-10.00002 6.2356055e-17 0
-10.00002 3.1684554e-15 0
-10.00002 -3.1724405e-15 0
-10.00002 -1.0954152e-17 0
-10.00002 1.2349758e-16 0
-10.00002 1.8783526e-15 0
-10.00002 -8.6018048e-13 0
-10.00002 2.0974351e-10 0
-10.00002 1.5817593e-07 0
-10.00002 -2.0467457e-05 0
-10.000022 -0.0053104444 0
-10.005017 0.0050171266 0
-10.00531 2.1682689e-05 0
-10.00531 -1.5335284e-07 0
-10.00531 -2.223639e-10 0
-10.00531 8.3708718e-13 0
-10.00531 9.5327887e-16 0
-10.00531 -5.5712048e-18 0
-10.00531 -1.4790101e-15 0
-10.00531 3.4683284e-15 0
-10.00531 -2.9867511e-15 0
-10.00531 -5.3191757e-17 0
-10.00531 2.8880067e-15 0
-10.00531 -2.9756438e-15 0
-10.00531 -1.2057672e-16 0
-10.00531 6.3388925e-17 0
-10.00531 3.0899914e-15 0
-10.00531 -3.0924433e-15 0
-10.00531 -1.0954154e-17 0
-10.00531 1.2122547e-16 0
-10.00531 1.7809532e-15 0
-10.00531 -8.3880969e-13 0
-10.00531 2.2236199e-10 0
-10.00531 1.5335284e-07 0
-10.00531 -2.1682689e-05 0
-10.005017 -0.0050171266 0
-9.7654112 1.6257634 0
5.0418484 7.3827025 0
-9.9586215 -0.1619072 0
-10.045404 -8.1865879e-05 0
-10.045163 0.00021151418 0
-10.045156 -1.8613334e-07 0
-10.045156 1.344798e-11 0
-10.045156 -4.4715195e-09 0
-10.045156 1.5160082e-13 0
-10.045156 -6.11737e-13 0
-10.045156 -4.3914517e-09 0
-10.045156 -4.7852692e-08 0
-10.045156 -4.1240265e-06 0
-10.045156 4.8368919e-08 0
-10.045156 -1.0919077e-13 0
-10.045156 1.5069075e-12 0
-10.045156 -4.624215e-15 0
-10.045156 -2.9434153e-15 0
-10.045156 -2.097896e-12 0
-10.045156 1.6864311e-07 0
-10.045163 1.2265175e-05 0
-10.045404 0.0001080088 0
-9.9586199 0.16191936 0
5.0419088 -7.382715 0
-9.7654115 -1.6257631 0
2.6309827 -13.726752 0
-8.0977529 -2.8209817 0
-10.07547 -0.013934407 0
10.007652 -0.013608574 0
10.044331 -0.00022450791 0
10.044351 -5.4965427e-07 0
10.044351 -1.3339374e-11 0
10.044351 3.9170931e-09 0
10.044351 -1.1528725e-13 0
10.044351 -6.623619e-13 0
10.044351 3.8594397e-09 0
10.044351 3.0613863e-08 0
10.044351 2.8439453e-06 0
10.044351 -3.0920291e-08 0
10.044351 1.8962779e-12 0
10.044351 1.0863678e-12 0
10.044351 -4.5049934e-15 0
10.044351 -5.7614784e-15 0
10.044351 -4.0840138e-12 0
10.044351 5.6207224e-07 0
10.044331 5.0883507e-05 0
10.007655 0.013554973 0
-10.075464 0.013879524 0
-8.0977467 2.8209916 0
2.6309827 13.726752 0
0.47511169 -5.2197801 0
-0.57268995 -3.3438507 0
5.5945489 15.993444 0
-10.506026 0.4229946 0
-10.046346 8.3715618e-05 0
-10.04636 -7.3203956e-07 0
-10.046361 1.3952611e-11 0
-10.046361 -3.585238e-09 0
-10.046361 9.6016048e-14 0
-10.046361 -4.1513795e-13 0
-10.046361 -3.5351299e-09 0
-10.046361 -2.7662095e-08 0
-10.046361 -2.6403577e-06 0
-10.046361 2.7945907e-08 0
-10.046361 3.1360141e-13 0
-10.046361 1.0059221e-12 0
-10.046361 -4.3748025e-15 0
-10.046361 -7.4260465e-15 0
-10.046361 -5.5333369e-12 0
-10.04636 7.2018783e-07 0
-10.046346 8.1032555e-05 0
-10.506239 -0.42315384 0
5.5946314 -15.993255 0
-0.57256564 3.3439755 0
0.47511394 5.2197784 0
0.34419738 -3.8302668 0
6.9758339 -10.497795 0
9.9773313 0.79344059 0
10.045416 0.00069425888 0
10.044246 -9.4199897e-05 0
10.04423 -2.9033203e-07 0
10.04423 -9.7006453e-12 0
10.04423 7.9462198e-10 0
10.04423 7.5849468e-15 0
10.04423 -3.3416136e-13 0
10.04423 7.8916386e-10 0
10.04423 5.4729021e-09 0
10.04423 7.9081025e-07 0
10.04423 -5.5034225e-09 0
10.04423 7.5707003e-13 0