# vtk DataFile Version 4.0
hesp visualization file
ASCII
DATASET UNSTRUCTURED_GRID
POINTS 32 double
5.9079143 1.157913 4
5.9368805 2.2583153 4
5.9368805 3.3539949 4
5.9079143 4.4543972 4
7.0083181 1.186879 4
7.0184032 2.2683999 4
7.0184032 3.3439104 4
7.0083181 4.4254312 4
8.1040017 1.1868796 4
8.0939183 2.2684001 4
8.0939183 3.3439102 4
8.1040017 4.4254307 4
9.2044154 1.1579166 4
9.1754522 2.2583167 4
9.1754522 3.3539936 4
9.2044154 4.4543936 4
12.407895 1.1579166 4
12.436858 2.2583167 4
12.436858 3.3539936 4
12.407895 4.4543936 4
13.508309 1.1868796 4
13.518392 2.2684001 4
13.518392 3.3439102 4
13.508309 4.4254307 4
14.603992 1.186879 4
14.593907 2.2683999 4
14.593907 3.3439104 4
14.603992 4.4254312 4
15.704396 1.157913 4
15.67543 2.2583153 4
15.67543 3.3539949 4
15.704396 4.4543972 4
CELLS 0 0
CELL_TYPES 0
POINT_DATA 32
SCALARS m double
LOOKUP_TABLE default
1
1
1
1
1
1
1
1
1
1
1
1
1
1
1
1
1
1
1
1
1
1
1
1
1
1
1
1
1
1
1
1
VECTORS v double
10.014651 0.014632357 0
10.014879 -0.0092857593 0
10.014879 0.0092857593 0
10.014651 -0.014632357 0
9.9907609 0.014856788 0
9.9668004 -0.033257744 0
9.9668004 0.033257744 0
9.9907609 -0.014856788 0
10.009422 0.014869476 0
10.033426 -0.033252966 0
10.033426 0.033252966 0
10.009422 -0.014869476 0
9.985835 0.014731297 0
9.9856956 -0.0092501043 0
9.9856956 0.0092501043 0
9.985835 -0.014731297 0
-9.985835 0.014731297 0
-9.9856956 -0.0092501043 0
-9.9856956 0.0092501043 0
-9.985835 -0.014731297 0
-10.009422 0.014869476 0
-10.033426 -0.033252966 0
-10.033426 0.033252966 0
-10.009422 -0.014869476 0
-9.9907609 0.014856788 0
-9.9668004 -0.033257744 0
-9.9668004 0.033257744 0
-9.9907609 -0.014856788 0
-10.014651 0.014632357 0
-10.014879 -0.0092857593 0
-10.014879 0.0092857593 0
-10.014651 -0.014632357 0
