# vtk DataFile Version 4.0
hesp visualization file
ASCII
DATASET UNSTRUCTURED_GRID
POINTS 32 double
6.557924 1.1048213 4
6.5054675 2.2354947 4
6.5054675 3.3768155 4
6.557924 4.5074889 4
7.7756753 0.90139288 4
7.6527305 2.1408218 4
7.6527305 3.4714885 4
7.7756753 4.7109174 4
9.3469634 1.3717818 4
8.6804813 2.2505807 4
8.6804813 3.3617295 4
9.3469634 4.2405284 4
10.329364 0.43067308 4
10.13524 1.9012237 4
10.13524 3.7110866 4
10.329364 5.1816372 4
11.282946 0.43067308 4
11.47707 1.9012237 4
11.47707 3.7110866 4
11.282946 5.1816372 4
12.265347 1.3717818 4
12.931829 2.2505807 4
12.931829 3.3617295 4
12.265347 4.2405284 4
13.836635 0.90139288 4
13.95958 2.1408218 4
13.95958 3.4714885 4
13.836635 4.7109174 4
15.054386 1.1048213 4
15.106843 2.2354947 4
15.106843 3.3768155 4
15.054386 4.5074889 4
CELLS 0 0
CELL_TYPES 0
POINT_DATA 32
SCALARS m double
LOOKUP_TABLE default
1
1
1
1
1
1
1
1
1
1
1
1
1
1
1
1
1
1
1
1
1
1
1
1
1
1
1
1
1
1
1
1
VECTORS v double
-9.9606554 -0.31022421 0
-10.528697 -0.11386179 0
-10.528697 0.11386179 0
-9.9606554 0.31022421 0
-9.1808947 -2.3767555 0
-10.363328 -1.1635547 0
-10.363328 1.1635547 0
-9.1808947 2.3767555 0
-6.014387 -8.5960167 0
-13.257448 -6.1324661 0
-13.257448 6.1324661 0
-6.014387 8.5960167 0
-2.5434068 -7.9678599 0
-1.8066426 -1.0724284 0
-1.8066426 1.0724284 0
-2.5434068 7.9678599 0
2.5434068 -7.9678599 0
1.8066426 -1.0724284 0
1.8066426 1.0724284 0
2.5434068 7.9678599 0
6.014387 -8.5960167 0
13.257448 -6.1324661 0
13.257448 6.1324661 0
6.014387 8.5960167 0
9.1808947 -2.3767555 0
10.363328 -1.1635547 0
10.363328 1.1635547 0
9.1808947 2.3767555 0
9.9606554 -0.31022421 0
10.528697 -0.11386179 0
10.528697 0.11386179 0
9.9606554 0.31022421 0
