# vtk DataFile Version 4.0
hesp visualization file
ASCII
DATASET UNSTRUCTURED_GRID
POINTS 1250 double
30.123264 1.1225058 4
30.123265 2.2449244 4
30.123265 3.3673861 4
30.123265 4.4898482 4
30.123265 5.6123102 4
30.123265 6.7347723 4
30.123265 7.8572343 4
30.123265 8.9796964 4
30.123265 10.102158 4
30.123265 11.22462 4
30.123265 12.347083 4
30.123265 13.469545 4
30.123265 14.592007 4
30.123265 15.714469 4
30.123265 16.836931 4
30.123265 17.959393 4
30.123265 19.081855 4
30.123265 20.204317 4
30.123265 21.326779 4
30.123265 22.449241 4
30.123265 23.571703 4
30.123265 24.694165 4
30.123265 25.816627 4
30.123265 26.939089 4
30.123264 28.061507 4
31.244924 1.1225062 4
31.244924 2.2449244 4
31.244924 3.3673861 4
31.244924 4.4898482 4
31.244924 5.6123102 4
31.244924 6.7347723 4
31.244924 7.8572343 4
31.244924 8.9796964 4
31.244924 10.102158 4
31.244924 11.22462 4
31.244924 12.347083 4
31.244924 13.469545 4
31.244924 14.592007 4
31.244924 15.714469 4
31.244924 16.836931 4
31.244924 17.959393 4
31.244924 19.081855 4
31.244924 20.204317 4
31.244924 21.326779 4
31.244924 22.449241 4
31.244924 23.571703 4
31.244924 24.694165 4
31.244924 25.816627 4
31.244924 26.939089 4
31.244924 28.061507 4
32.367386 1.1225062 4
32.367386 2.2449244 4
32.367386 3.3673861 4
32.367386 4.4898482 4
32.367386 5.6123102 4
32.367386 6.7347723 4
32.367386 7.8572343 4
32.367386 8.9796964 4
32.367386 10.102158 4
32.367386 11.22462 4
32.367386 12.347083 4
32.367386 13.469545 4
32.367386 14.592007 4
32.367386 15.714469 4
32.367386 16.836931 4
32.367386 17.959393 4
32.367386 19.081855 4
32.367386 20.204317 4
32.367386 21.326779 4
32.367386 22.449241 4
32.367386 23.571703 4
32.367386 24.694165 4
32.367386 25.816627 4
32.367386 26.939089 4
32.367386 28.061507 4
33.489848 1.1225062 4
33.489848 2.2449244 4
33.489848 3.3673861 4
33.489848 4.4898482 4
33.489848 5.6123102 4
33.489848 6.7347723 4
33.489848 7.8572343 4
33.489848 8.9796964 4
33.489848 10.102158 4
33.489848 11.22462 4
33.489848 12.347083 4
33.489848 13.469545 4
33.489848 14.592007 4
33.489848 15.714469 4
33.489848 16.836931 4
33.489848 17.959393 4
33.489848 19.081855 4
33.489848 20.204317 4
33.489848 21.326779 4
33.489848 22.449241 4
33.489848 23.571703 4
33.489848 24.694165 4
33.489848 25.816627 4
33.489848 26.939089 4
33.489848 28.061507 4
34.61231 1.1225062 4
34.61231 2.2449244 4
34.61231 3.3673861 4
34.61231 4.4898482 4
34.61231 5.6123102 4
34.61231 6.7347723 4
34.61231 7.8572343 4
34.61231 8.9796964 4
34.61231 10.102158 4
34.61231 11.22462 4
34.61231 12.347083 4
34.61231 13.469545 4
34.61231 14.592007 4
34.61231 15.714469 4
34.61231 16.836931 4
34.61231 17.959393 4
34.61231 19.081855 4
34.61231 20.204317 4
34.61231 21.326779 4
34.61231 22.449241 4
34.61231 23.571703 4
34.61231 24.694165 4
34.61231 25.816627 4
34.61231 26.939089 4
34.61231 28.061507 4
35.734772 1.1225062 4
35.734772 2.2449244 4
35.734772 3.3673861 4
35.734772 4.4898482 4
35.734772 5.6123102 4
35.734772 6.7347723 4
35.734772 7.8572343 4
35.734772 8.9796964 4
35.734772 10.102158 4
35.734772 11.22462 4
35.734772 12.347083 4
35.734772 13.469545 4
35.734772 14.592007 4
35.734772 15.714469 4
35.734772 16.836931 4
35.734772 17.959393 4
35.734772 19.081855 4
35.734772 20.204317 4
35.734772 21.326779 4
35.734772 22.449241 4
35.734772 23.571703 4
35.734772 24.694165 4
35.734772 25.816627 4
35.734772 26.939089 4
35.734772 28.061507 4
36.857234 1.1225062 4
36.857234 2.2449244 4
36.857234 3.3673861 4
36.857234 4.4898482 4
36.857234 5.6123102 4
36.857234 6.7347723 4
36.857234 7.8572343 4
36.857234 8.9796964 4
36.857234 10.102158 4
36.857234 11.22462 4
36.857234 12.347083 4
36.857234 13.469545 4
36.857234 14.592007 4
36.857234 15.714469 4
36.857234 16.836931 4
36.857234 17.959393 4
36.857234 19.081855 4
36.857234 20.204317 4
36.857234 21.326779 4
36.857234 22.449241 4
36.857234 23.571703 4
36.857234 24.694165 4
36.857234 25.816627 4
36.857234 26.939089 4
36.857234 28.061507 4
37.979696 1.1225062 4
37.979696 2.2449244 4
37.979696 3.3673861 4
37.979696 4.4898482 4
37.979696 5.6123102 4
37.979696 6.7347723 4
37.979696 7.8572343 4
37.979696 8.9796964 4
37.979696 10.102158 4
37.979696 11.22462 4
37.979696 12.347083 4
37.979696 13.469545 4
37.979696 14.592007 4
37.979696 15.714469 4
37.979696 16.836931 4
37.979696 17.959393 4
37.979696 19.081855 4
37.979696 20.204317 4
37.979696 21.326779 4
37.979696 22.449241 4
37.979696 23.571703 4
37.979696 24.694165 4
37.979696 25.816627 4
37.979696 26.939089 4
37.979696 28.061507 4
39.102158 1.1225062 4
39.102158 2.2449244 4
39.102158 3.3673861 4
39.102158 4.4898482 4
39.102158 5.6123102 4
39.102158 6.7347723 4
39.102158 7.8572343 4
39.102158 8.9796964 4
39.102158 10.102158 4
39.102158 11.22462 4
39.102158 12.347083 4
39.102158 13.469545 4
39.102158 14.592007 4
39.102158 15.714469 4
39.102158 16.836931 4
39.102158 17.959393 4
39.102158 19.081855 4
39.102158 20.204317 4
39.102158 21.326779 4
39.102158 22.449241 4
39.102158 23.571703 4
39.102158 24.694165 4
39.102158 25.816627 4
39.102158 26.939089 4
39.102158 28.061507 4
40.22462 1.1225062 4
40.22462 2.2449244 4
40.22462 3.3673861 4
40.22462 4.4898482 4
40.22462 5.6123102 4
40.22462 6.7347723 4
40.22462 7.8572343 4
40.22462 8.9796964 4
40.22462 10.102158 4
40.22462 11.22462 4
40.22462 12.347083 4
40.22462 13.469545 4
40.22462 14.592007 4
40.22462 15.714469 4
40.22462 16.836931 4
40.22462 17.959393 4
40.22462 19.081855 4
40.22462 20.204317 4
40.22462 21.326779 4
40.22462 22.449241 4
40.22462 23.571703 4
40.22462 24.694165 4
40.22462 25.816627 4
40.22462 26.939089 4
40.22462 28.061507 4
41.347083 1.1225062 4
41.347083 2.2449244 4
41.347083 3.3673861 4
41.347083 4.4898482 4
41.347083 5.6123102 4
41.347083 6.7347723 4
41.347083 7.8572343 4
41.347083 8.9796964 4
41.347083 10.102158 4
41.347083 11.22462 4
41.347083 12.347083 4
41.347083 13.469545 4
41.347083 14.592007 4
41.347083 15.714469 4
41.347083 16.836931 4
41.347083 17.959393 4
41.347083 19.081855 4
41.347083 20.204317 4
41.347083 21.326779 4
41.347083 22.449241 4
41.347083 23.571703 4
41.347083 24.694165 4
41.347083 25.816627 4
41.347083 26.939089 4
41.347083 28.061507 4
42.469545 1.1225062 4
42.469545 2.2449244 4
42.469545 3.3673861 4
42.469545 4.4898482 4
42.469545 5.6123102 4
42.469545 6.7347723 4
42.469545 7.8572343 4
42.469545 8.9796964 4
42.469545 10.102158 4
42.469545 11.22462 4
42.469545 12.347083 4
42.469545 13.469545 4
42.469545 14.592007 4
42.469545 15.714469 4
42.469545 16.836931 4
42.469545 17.959393 4
42.469545 19.081855 4
42.469545 20.204317 4
42.469545 21.326779 4
42.469545 22.449241 4
42.469545 23.571703 4
42.469545 24.694165 4
42.469545 25.816627 4
42.469545 26.939089 4
42.469545 28.061507 4
43.592007 1.1225062 4
43.592007 2.2449244 4
43.592007 3.3673861 4
43.592007 4.4898482 4
43.592007 5.6123102 4
43.592007 6.7347723 4
43.592007 7.8572343 4
43.592007 8.9796964 4
43.592007 10.102158 4
43.592007 11.22462 4
43.592007 12.347083 4
43.592007 13.469545 4
43.592007 14.592007 4
43.592007 15.714469 4
43.592007 16.836931 4
43.592007 17.959393 4
43.592007 19.081855 4
43.592007 20.204317 4
43.592007 21.326779 4
43.592007 22.449241 4
43.592007 23.571703 4
43.592007 24.694165 4
43.592007 25.816627 4
43.592007 26.939089 4
43.592007 28.061507 4
44.714469 1.1225062 4
44.714469 2.2449244 4
44.714469 3.3673861 4
44.714469 4.4898482 4
44.714469 5.6123102 4
44.714469 6.7347723 4
44.714469 7.8572343 4
44.714469 8.9796964 4
44.714469 10.102158 4
44.714469 11.22462 4
44.714469 12.347083 4
44.714469 13.469545 4
44.714469 14.592007 4
44.714469 15.714469 4
44.714469 16.836931 4
44.714469 17.959393 4
44.714469 19.081855 4
44.714469 20.204317 4
44.714469 21.326779 4
44.714469 22.449241 4
44.714469 23.571703 4
44.714469 24.694165 4
44.714469 25.816627 4
44.714469 26.939089 4
44.714469 28.061507 4
45.836931 1.1225062 4
45.836931 2.2449244 4
45.836931 3.3673861 4
45.836931 4.4898482 4
45.836931 5.6123102 4
45.836931 6.7347723 4
45.836931 7.8572343 4
45.836931 8.9796964 4
45.836931 10.102158 4
45.836931 11.22462 4
45.836931 12.347083 4
45.836931 13.469545 4
45.836931 14.592007 4
45.836931 15.714469 4
45.836931 16.836931 4
45.836931 17.959393 4
45.836931 19.081855 4
45.836931 20.204317 4
45.836931 21.326779 4
45.836931 22.449241 4
45.836931 23.571703 4
45.836931 24.694165 4
45.836931 25.816627 4
45.836931 26.939089 4
45.836931 28.061507 4
46.959393 1.1225062 4
46.959393 2.2449244 4
46.959393 3.3673861 4
46.959393 4.4898482 4
46.959393 5.6123102 4
46.959393 6.7347723 4
46.959393 7.8572343 4
46.959393 8.9796964 4
46.959393 10.102158 4
46.959393 11.22462 4
46.959393 12.347083 4
46.959393 13.469545 4
46.959393 14.592007 4
46.959393 15.714469 4
46.959393 16.836931 4
46.959393 17.959393 4
46.959393 19.081855 4
46.959393 20.204317 4
46.959393 21.326779 4
46.959393 22.449241 4
46.959393 23.571703 4
46.959393 24.694165 4
46.959393 25.816627 4
46.959393 26.939089 4
46.959393 28.061507 4
48.081855 1.1225062 4
48.081855 2.2449244 4
48.081855 3.3673861 4
48.081855 4.4898482 4
48.081855 5.6123102 4
48.081855 6.7347723 4
48.081855 7.8572343 4
48.081855 8.9796964 4
48.081855 10.102158 4
48.081855 11.22462 4
48.081855 12.347083 4
48.081855 13.469545 4
48.081855 14.592007 4
48.081855 15.714469 4
48.081855 16.836931 4
48.081855 17.959393 4
48.081855 19.081855 4
48.081855 20.204317 4
48.081855 21.326779 4
48.081855 22.449241 4
48.081855 23.571703 4
48.081855 24.694165 4
48.081855 25.816627 4
48.081855 26.939089 4
48.081855 28.061507 4
49.204317 1.1225062 4
49.204317 2.2449244 4
49.204317 3.3673861 4
49.204317 4.4898482 4
49.204317 5.6123102 4
49.204317 6.7347723 4
49.204317 7.8572343 4
49.204317 8.9796964 4
49.204317 10.102158 4
49.204317 11.22462 4
49.204317 12.347083 4
49.204317 13.469545 4
49.204317 14.592007 4
49.204317 15.714469 4
49.204317 16.836931 4
49.204317 17.959393 4
49.204317 19.081855 4
49.204317 20.204317 4
49.204317 21.326779 4
49.204317 22.449241 4
49.204317 23.571703 4
49.204317 24.694165 4
49.204317 25.816627 4
49.204317 26.939089 4
49.204317 28.061507 4
50.326779 1.1225062 4
50.326779 2.2449244 4
50.326779 3.3673861 4
[...]
POINT_DATA 1250
SCALARS m double
LOOKUP_TABLE default
1
1
1
1
1
1
1
1
1
1
1
1
1
1
1
1
1
1
1
1
1
1
1
1
1
1
1
1
1
1
1
1
1
1
1
1
1
1
1
1
1
1
1
1
1
1
1
1
1
1
1
1
1
1
1
1
1
1
1
1
1
1
1
1
1
1
1
1
1
1
1
1
1
1
1
1
1
1
1
1
1
1
1
1
1
1
1
1
1
1
1
1
1
1
1
1
1
1
1
1
1
1
1
1
1
1
1
1
1
1
1
1
1
1
1
1
1
1
1
1
1
1
1
1
1
1
1
1
1
1
1
1
1
1
1
1
1
1
1
1
1
1
1
1
1
1
1
1
1
1
1
1
1
1
1
1
1
1
1
1
1
1
1
1
1
1
1
1
1
1
1
1
1
1
1
1
1
1
1
1
1
1
1
1
1
1
1
1
1
1
1
1
1
1
1
1
1
1
1
1
1
1
1
1
1
1
1
1
1
1
1
1
1
1
1
1
1
1
1
1
1
1
1
1
1
1
1
1
1
1
1
1
1
1
1
1
1
1
1
1
1
1
1
1
1
1
1
1
1
1
1
1
1
1
1
1
1
1
1
1
1
1
1
1
1
1
1
1
1
1
1
1
1
1
1
1
1
1
1
1
1
1
1
1
1
1
1
1
1
1
1
1
1
1
1
1
1
1
1
1
1
1
1
1
1
1
1
1
1
1
1
1
1
1
1
1
1
1
1
1
1
1
1
1
1
1
1
1
1
1
1
1
1
1
1
1
1
1
1
1
1
1
1
1
1
1
1
1
1
1
1
1
1
1
1
1
1
1
1
1
1
1
1
1
1
1
1
1
1
1
1
1
1
1
1
1
1
1
1
1
1
1
1
1
1
1
1
1
1
1
1
1
1
1
1
1
1
1
1
1
1
1
1
1
1
1
1
1
1
1
1
1
1
1
1
1
1
1
1
1
1
1
1
1
1
1
1
1
1
1
1
1
1
1
1
1
1
1
1
1
1
1
1
1
1
1
1
1
1
1
1
1
1
1
1
1
1
1
1
1
1
1
1
1
1
1
1
1
1
1
1
1
1
1
1
1
1
1
1
1
1
1
1
1
1
1
1
1
1
1
1
1
1
1
1
1
1
1
1
1
1
1
1
1
1
1
1
1
1
1
1
1
1
1
1
1
1
1
1
1
1
1
1
1
1
1
1
1
1
1
1
1
1
1
1
1
1
1
1
1
1
1
1
1
1
1
1
1
1
1
1
1
1
1
1
1
1
1
1
1
1
1
1
1
1
1
1
1
1
1
1
1
1
1
1
1
1
1
1
1
1
1
1
1
1
1
1
1
1
1
1
1
1
1
1
1
1
1
1
1
1
1
1
1
1
1
1
1
1
1
1
1
1
1
1
1
1
1
1
1
1
1
1
1
1
1
1
1
1
1
1
1
1
1
1
1
1
1
1
1
1
1
1
1
1
1
1
1
1
1
1
1
1
1
1
1
1
1
1
1
1
1
1
1
1
1
1
1
1
1
1
1
1
1
1
1
1
1
1
1
1
1
1
1
1
1
1
1
1
1
1
1
1
1
1
1
1
1
1
1
1
1
1
1
1
1
1
1
1
1
1
1
1
1
1
1
1
1
1
1
1
1
1
1
1
1
1
1
1
1
1
1
1
1
1
1
1
1
1
1
1
1
1
1
1
1
1
1
1
1
1
1
1
1
1
1
1
1
1
1
1
1
1
1
1
1
1
1
1
1
1
1
1
1
1
1
1
1
1
1
1
1
1
1
1
1
1
1
1
1
1
1
1
1
1
1
1
1
1
1
1
1
1
1
1
1
1
1
1
1
1
1
1
1
1
1
1
1
1
1
1
1
1
1
1
1
1
1
1
1
1
1
1
1
1
1
1
1
1
1
1
1
1
1
1
1
1
1
1
1
1
1
1
1
1
1
1
1
1
1
1
1
1
1
1
1
1
1
1
1
1
1
1
1
1
1
1
1
1
1
1
1
1
1
1
1
1
1
1
1
1
1
1
1
1
1
1
1
1
1
1
1
1
1
1
1
1
1
1
1
1
1
1
1
1
1
1
1
1
1
1
1
1
1
1
1
1
1
1
1
1
1
1
1
1
1
1
1
1
1
1
1
1
1
1
1
1
1
1
1
1
1
1
1
1
1
1
1
1
1
1
1
1
1
1
1
1
1
1
1
1
1
1
1
1
1
1
1
1
1
1
1
1
1
1
1
1
1
1
1
1
1
1
1
1
1
1
1
1
1
1
1
1
1
1
1
1
1
1
1
1
1
1
1
1
1
1
1
1
1
1
1
1
1
1
1
1
1
1
1
1
1
1
1
1
1
1
1
1
1
1
1
1
1
1
1
1
1
1
1
1
1
1
1
1
1
1
1
1
1
1
1
1
1
1
1
1
1
1
1
1
1
1
1
1
1
1
1
1
1
1
1
1
1
1
1
1
1
1
1
1
1
1
1
1
1
1
1
1
1
1
1
1
1
1
1
1
1
1
1
1
1
1
1
1
1
1
1
1
1
1
1
1
1
1
1
1
1
1
1
1
1
1
1
1
1
1
1
1
1
1
1
1
1
1
1
1
1
1
1
1
1
1
1
1
1
1
1
1
1
1
1
1
1
1
1
1
1
1
1
1
1
1
1
1
1
1
1
1
1
1
1
1
1
1
1
1
1
1
1
1
1
1
1
1
1
1
1
1
1
1
1
1
1
1
1
1
1
1
1
1
1
1
1
1
1
1
1
1
1
1
1
1
1
1
1
1
1
1
1
1
1
1
1
1
1
1
1
1
1
1
1
1
1
1
1
1
1
1
1
VECTORS v double
-8.2874009 0.00096304152 0
-8.2875873 7.8216816e-06 0
-8.2875858 -1.0999335e-09 0
-8.2875858 -3.1218326e-12 0
-8.2875858 1.6439374e-14 0
-8.2875858 5.389127e-15 0
-8.2875858 -2.6974409e-15 0
-8.2875858 -1.1060995e-14 0
-8.2875858 6.4824152e-16 0
-8.2875858 -5.9508218e-15 0
-8.2875858 -1.0794822e-14 0
-8.2875858 -1.563771e-14 0
-8.2875858 -2.2125886e-14 0
-8.2875858 1.615464e-14 0
-8.2875858 1.0796875e-14 0
-8.2875858 1.136271e-14 0
-8.2875858 -5.7740256e-16 0
-8.2875858 -2.341189e-18 0
-8.2875858 2.251424e-17 0
-8.2875858 -1.0247077e-14 0
-8.2875858 -1.150115e-14 0
-8.2875858 3.122236e-12 0
-8.2875858 1.0999241e-09 0
-8.2875873 -7.8216816e-06 0
-8.2874009 -0.00096304152 0
-10.00002 0.00088524983 0
-10.000024 6.0144738e-06 0
-10.000024 -7.9835099e-10 0
-10.000024 -1.8992453e-12 0
-10.000024 1.6573379e-16 0
-10.000024 -3.6825809e-18 0
-10.000024 -7.311993e-19 0
-10.000024 -2.5209265e-16 0
-10.000024 5.9358101e-16 0
-10.000024 -5.1085972e-16 0
-10.000024 -8.2363607e-18 0
-10.000024 4.9554037e-16 0
-10.000024 -5.072159e-16 0
-10.000024 -2.2036794e-17 0
-10.000024 9.9162162e-18 0
-10.000024 5.28002e-16 0
-10.000024 -5.2897485e-16 0
-10.000024 -1.8255362e-18 0
-10.000024 2.0445604e-17 0
-10.000024 4.9383215e-16 0
-10.000024 -5.8563152e-16 0
-10.000024 1.89914e-12 0
-10.000024 7.9835098e-10 0
-10.000024 -6.0144738e-06 0
-10.00002 -0.00088524983 0
-10 0.0008823646 0
-10 6.0144874e-06 0
-10 -7.9634118e-10 0
-10 -1.8993499e-12 0
-10 1.6557432e-16 0
-10 -3.6160847e-18 0
-10 -7.3827304e-19 0
-10 -2.5211239e-16 0
-10 5.9315956e-16 0
-10 -5.1047621e-16 0
-10 -8.4037589e-18 0
-10 4.9484437e-16 0
-10 -5.0729016e-16 0
-10 -2.1600467e-17 0
-10 1.003623e-17 0
-10 5.2773569e-16 0
-10 -5.286054e-16 0
-10 -1.8256359e-18 0
-10 2.0494464e-17 0
-10 4.9327218e-16 0
-10 -5.8486687e-16 0
-10 1.8992484e-12 0
-10 7.9634112e-10 0
-10 -6.0144874e-06 0
-10 -0.0008823646 0
-10 0.00088236459 0
-10 6.014489e-06 0
-10 -7.9634093e-10 0
-10 -1.8993507e-12 0
-10 1.660469e-16 0
-10 -3.5645882e-18 0
-10 -7.7597775e-19 0
-10 -2.5241964e-16 0
-10 5.9313638e-16 0
-10 -5.1056494e-16 0
-10 -8.6471997e-18 0
-10 4.9442641e-16 0
-10 -5.0788814e-16 0
-10 -2.1117386e-17 0
-10 1.0278461e-17 0
-10 5.2797093e-16 0
-10 -5.2866008e-16 0
-10 -1.8244474e-18 0
-10 2.051996e-17 0
-10 4.9308777e-16 0
-10 -5.8519008e-16 0
-10 1.8992485e-12 0
-10 7.9634088e-10 0
-10 -6.014489e-06 0
-10 -0.00088236459 0
-10 0.00088236459 0
-10 6.014489e-06 0
-10 -7.9634093e-10 0
-10 -1.8993503e-12 0
-10 1.6579145e-16 0
-10 -3.6286901e-18 0
-10 -7.3734143e-19 0
-10 -2.5228509e-16 0
-10 5.9308128e-16 0
-10 -5.1050347e-16 0
-10 -8.5454928e-18 0
-10 4.9451675e-16 0
-10 -5.0752166e-16 0
-10 -2.1368661e-17 0
-10 1.0145784e-17 0
-10 5.278571e-16 0
-10 -5.2855879e-16 0
-10 -1.8249099e-18 0
-10 2.0427784e-17 0
-10 4.9328624e-16 0
-10 -5.8513419e-16 0
-10 1.8992488e-12 0
-10 7.9634088e-10 0
-10 -6.014489e-06 0
-10 -0.00088236459 0
-10 0.00088236459 0
-10 6.014489e-06 0
-10 -7.9634093e-10 0
-10 -1.8993506e-12 0
-10 1.6582818e-16 0
-10 -3.6066947e-18 0
-10 -7.507211e-19 0
-10 -2.5235196e-16 0
-10 5.9305955e-16 0
-10 -5.1043241e-16 0
-10 -8.5929965e-18 0
-10 4.9449503e-16 0
-10 -5.0749598e-16 0
-10 -2.1375071e-17 0
-10 1.0196073e-17 0
-10 5.278586e-16 0
-10 -5.2857842e-16 0
-10 -1.8269221e-18 0
-10 2.0434402e-17 0
-10 4.9329092e-16 0
-10 -5.8507927e-16 0
-10 1.8992488e-12 0
-10 7.9634088e-10 0
-10 -6.014489e-06 0
-10 -0.00088236459 0
-10 0.00088236459 0
-10 6.014489e-06 0
-10 -7.9634093e-10 0
-10 -1.8993506e-12 0
-10 1.6583217e-16 0
-10 -3.5914765e-18 0
-10 -7.5516106e-19 0
-10 -2.5221667e-16 0
-10 5.9311123e-16 0
-10 -5.1054759e-16 0
-10 -8.5526573e-18 0
-10 4.9455738e-16 0
-10 -5.0754813e-16 0
-10 -2.1354176e-17 0
-10 1.0224685e-17 0
-10 5.2786077e-16 0
-10 -5.2857594e-16 0
-10 -1.8244474e-18 0
-10 2.0423683e-17 0
-10 4.9329854e-16 0
-10 -5.8514159e-16 0
-10 1.8992489e-12 0
-10 7.9634088e-10 0
-10 -6.014489e-06 0
-10 -0.00088236459 0
-10 0.00088236459 0
-10 6.014489e-06 0
-10 -7.9634093e-10 0
-10 -1.8993505e-12 0
-10 1.6582339e-16 0
-10 -3.6253036e-18 0
-10 -7.5516106e-19 0
-10 -2.5221667e-16 0
-10 5.9311123e-16 0
-10 -5.1054759e-16 0
-10 -8.5092892e-18 0
-10 4.9460075e-16 0
-10 -5.075915e-16 0
-10 -2.1354176e-17 0
-10 1.0137949e-17 0
-10 5.2786077e-16 0
-10 -5.2857594e-16 0
-10 -1.8244474e-18 0
-10 2.0423683e-17 0
-10 4.9329848e-16 0
-10 -5.8514023e-16 0
-10 1.8992488e-12 0
-10 7.9634088e-10 0
-10 -6.014489e-06 0
-10 -0.00088236459 0
-10 0.00088236459 0
-10 6.014489e-06 0
-10 -7.9634093e-10 0
-10 -1.8993506e-12 0
-10 1.6582867e-16 0
-10 -3.6269554e-18 0
-10 -7.3734143e-19 0
-10 -2.5228509e-16 0
-10 5.9308128e-16 0
-10 -5.1050347e-16 0
-10 -8.5593706e-18 0
-10 4.9450288e-16 0
-10 -5.075286e-16 0
-10 -2.1368661e-17 0
-10 1.0145784e-17 0
-10 5.278571e-16 0
-10 -5.2855879e-16 0
-10 -1.8249099e-18 0
-10 2.0427784e-17 0
-10 4.9328618e-16 0
-10 -5.8511957e-16 0
-10 1.8992488e-12 0
-10 7.9634088e-10 0
-10 -6.014489e-06 0
-10 -0.00088236459 0
-10 0.00088236459 0
-10 6.014489e-06 0
-10 -7.9634093e-10 0
-10 -1.8993505e-12 0
-10 1.658235e-16 0
-10 -3.6253036e-18 0
-10 -7.5516106e-19 0
-10 -2.5234678e-16 0
-10 5.9311123e-16 0
-10 -5.1041749e-16 0
-10 -8.5526573e-18 0
-10 4.9451402e-16 0
-10 -5.0750477e-16 0
-10 -2.1354176e-17 0
-10 1.0137949e-17 0
-10 5.2786077e-16 0
-10 -5.2857594e-16 0
-10 -1.8244474e-18 0
-10 2.0423683e-17 0
-10 4.9329854e-16 0
-10 -5.8510602e-16 0
-10 1.8992488e-12 0
-10 7.9634088e-10 0
-10 -6.014489e-06 0
-10 -0.00088236459 0
-10 0.00088236459 0
-10 6.014489e-06 0
-10 -7.9634093e-10 0
-10 -1.8993504e-12 0
-10 1.6579376e-16 0
-10 -3.60496e-18 0
-10 -7.507211e-19 0
-10 -2.5222186e-16 0
-10 5.9305955e-16 0
-10 -5.1056251e-16 0
-10 -8.5929965e-18 0
-10 4.945384e-16 0
-10 -5.0753935e-16 0
-10 -2.1375071e-17 0
-10 1.0196073e-17 0
-10 5.278586e-16 0
-10 -5.2857842e-16 0
-10 -1.8269221e-18 0
-10 2.0434402e-17 0
-10 4.9329086e-16 0
-10 -5.8513577e-16 0
-10 1.8992488e-12 0
-10 7.9634088e-10 0
-10 -6.014489e-06 0
-10 -0.00088236459 0
-10 0.00088236459 0
-10 6.014489e-06 0
-10 -7.9634093e-10 0
-10 -1.8993505e-12 0
-10 1.6579492e-16 0
-10 -3.5922609e-18 0
-10 -7.3734143e-19 0
-10 -2.5228509e-16 0
-10 5.9308128e-16 0
-10 -5.1050347e-16 0
-10 -8.5593706e-18 0
-10 4.9450288e-16 0
-10 -5.0748523e-16 0
-10 -2.1368661e-17 0
-10 1.023252e-17 0
-10 5.278571e-16 0
-10 -5.2855879e-16 0
-10 -1.8249099e-18 0
-10 2.0427784e-17 0
-10 4.9328624e-16 0
-10 -5.8508475e-16 0
-10 1.8992488e-12 0
-10 7.9634088e-10 0
-10 -6.014489e-06 0
-10 -0.00088236459 0
-10 0.00088236459 0
-10 6.014489e-06 0
-10 -7.9634093e-10 0
-10 -1.8993507e-12 0
-10 1.6584816e-16 0
-10 -3.6270383e-18 0
-10 -7.5516106e-19 0
-10 -2.5234678e-16 0
-10 5.9311123e-16 0
-10 -5.1041749e-16 0
-10 -8.5526573e-18 0
-10 4.9451402e-16 0
-10 -5.0754813e-16 0
-10 -2.1354176e-17 0
-10 1.0137949e-17 0
-10 5.2786077e-16 0
-10 -5.2857594e-16 0
-10 -1.8244474e-18 0
-10 2.0423683e-17 0
-10 4.9329851e-16 0
-10 -5.8513565e-16 0
-10 1.8992489e-12 0
-10 7.9634088e-10 0
-10 -6.014489e-06 0
-10 -0.00088236459 0
-10 0.00088236459 0
-10 6.014489e-06 0
-10 -7.9634093e-10 0
-10 -1.8993505e-12 0
-10 1.6582399e-16 0
-10 -3.6270383e-18 0
-10 -7.5516106e-19 0
-10 -2.5221667e-16 0
-10 5.9311123e-16 0
-10 -5.1054759e-16 0
-10 -8.5526573e-18 0
-10 4.9455738e-16 0
-10 -5.0754813e-16 0
-10 -2.1354176e-17 0
-10 1.0137949e-17 0
-10 5.2786077e-16 0
-10 -5.2857594e-16 0
-10 -1.8244474e-18 0
-10 2.0423683e-17 0
-10 4.9329854e-16 0
-10 -5.851415e-16 0
-10 1.8992488e-12 0
-10 7.9634088e-10 0
-10 -6.014489e-06 0
-10 -0.00088236459 0
-10 0.00088236459 0
-10 6.014489e-06 0
-10 -7.9634093e-10 0
-10 -1.8993505e-12 0
-10 1.6580563e-16 0
-10 -3.6066947e-18 0
-10 -7.507211e-19 0
-10 -2.5222186e-16 0
-10 5.9305955e-16 0
-10 -5.1056251e-16 0
-10 -8.5929965e-18 0
-10 4.945384e-16 0
-10 -5.0758272e-16 0
-10 -2.1375071e-17 0
-10 1.0196073e-17 0
-10 5.278586e-16 0
-10 -5.2857842e-16 0
-10 -1.8269221e-18 0
-10 2.0434402e-17 0
-10 4.9329092e-16 0
-10 -5.8512871e-16 0
-10 1.8992488e-12 0
-10 7.9634088e-10 0
-10 -6.014489e-06 0
-10 -0.00088236459 0
-10 0.00088236459 0
-10 6.014489e-06 0
-10 -7.9634093e-10 0
-10 -1.8993507e-12 0
-10 1.6583995e-16 0
-10 -3.5931283e-18 0
-10 -7.3734143e-19 0
-10 -2.5228509e-16 0
-10 5.9308128e-16 0
-10 -5.1050347e-16 0
-10 -8.5593706e-18 0
-10 4.9450288e-16 0
-10 -5.0748523e-16 0
-10 -2.1368661e-17 0
-10 1.023252e-17 0
-10 5.278571e-16 0
-10 -5.2855879e-16 0
-10 -1.8249099e-18 0
-10 2.0427784e-17 0
-10 4.9328618e-16 0
-10 -5.8507707e-16 0
-10 1.8992488e-12 0
-10 7.9634088e-10 0
-10 -6.014489e-06 0
-10 -0.00088236459 0
-10 0.00088236459 0
-10 6.014489e-06 0
-10 -7.9634093e-10 0
-10 -1.8993505e-12 0
-10 1.6582176e-16 0
-10 -3.6253036e-18 0
-10 -7.5516106e-19 0
-10 -2.5234678e-16 0
-10 5.9311123e-16 0
-10 -5.1041749e-16 0
-10 -8.5526573e-18 0
-10 4.9451402e-16 0
-10 -5.0754813e-16 0
-10 -2.1354176e-17 0
-10 1.0137949e-17 0
-10 5.2786077e-16 0
-10 -5.2857594e-16 0
-10 -1.8244474e-18 0
-10 2.0423683e-17 0
-10 4.9329854e-16 0
-10 -5.8514766e-16 0
-10 1.8992488e-12 0
-10 7.9634088e-10 0
-10 -6.014489e-06 0
-10 -0.00088236459 0
-10 0.00088236459 0
-10 6.014489e-06 0
-10 -7.9634093e-10 0
-10 -1.8993505e-12 0
-10 1.6582165e-16 0
-10 -3.6253036e-18 0
-10 -7.5516106e-19 0
-10 -2.5221667e-16 0
-10 5.9311123e-16 0
-10 -5.1054759e-16 0
-10 -8.5526573e-18 0
-10 4.9455738e-16 0
-10 -5.0754813e-16 0
-10 -2.1354176e-17 0
-10 1.0137949e-17 0
-10 5.2786077e-16 0
-10 -5.2857594e-16 0
-10 -1.8244474e-18 0
-10 2.0423683e-17 0
-10 4.9329848e-16 0
-10 -5.8514023e-16 0
-10 1.8992488e-12 0
-10 7.9634088e-10 0
-10 -6.014489e-06 0
-10 -0.00088236459 0
-10 0.00088236459 0
-10 6.014489e-06 0
-10 -7.9634093e-10 0
-10 -1.8993505e-12 0
-10 1.6582176e-16 0
-10 -3.6253036e-18 0
-10 -7.5516106e-19 0
-10 -2.5221667e-16 0
-10 5.9311123e-16 0
-10 -5.1054759e-16 0
-10 -8.5526573e-18 0
-10 4.9455738e-16 0
-10 -5.075915e-16 0
-10 -2.1354176e-17 0
-10 1.0137949e-17 0
-10 5.2786077e-16 0
-10 -5.2857594e-16 0
-10 -1.8244474e-18 0
-10 2.0423683e-17 0
-10 4.9329854e-16 0
-10 -5.8514072e-16 0
-10 1.8992488e-12 0
-10 7.9634088e-10 0
-10 -6.014489e-06 0
-10 -0.00088236459 0
-10 0.00088236459 0
-10 6.014489e-06 0
-10 -7.9634093e-10 0
-10 -1.8993506e-12 0
-10 1.6579632e-16 0
-10 -3.592202e-18 0
-10 -7.3981619e-19 0
-10 -2.5227861e-16 0
-10 5.9310234e-16 0
-10 -5.1054265e-16 0
-10 -8.5877061e-18 0
-10 4.9452781e-16 0
-10 -5.0756402e-16 0
-10 -2.1381951e-17 0
-10 1.0188337e-17 0
-10 5.2782755e-16 0
-10 -5.2855042e-16 0
-10 -1.8273847e-18 0
-10 2.0429375e-17 0
-10 4.9324241e-16 0
-10 -5.850915e-16 0
-10 1.8992489e-12 0
-10 7.9634088e-10 0
-10 -6.014489e-06 0
-10 -0.00088236459 0
-10 0.00088236459 0
-10 6.014489e-06 0
-10 -7.9634093e-10 0
-10 -1.8993505e-12 0
-10 1.657744e-16 0
-10 -3.5868988e-18 0
-10 -7.5528151e-19 0
-10 -2.5234726e-16 0
-10 5.9311123e-16 0
-10 -5.1054783e-16 0
-10 -8.553139e-18 0
-10 4.9455666e-16 0
-10 -5.0759247e-16 0
-10 -2.1353453e-17 0
-10 1.0225167e-17 0
-10 5.2781789e-16 0
-10 -5.2857594e-16 0
-10 -1.8244474e-18 0
-10 2.0423683e-17 0
-10 4.9316795e-16 0
-10 -5.8509775e-16 0
-10 1.8992488e-12 0
-10 7.9634088e-10 0
-10 -6.014489e-06 0
-10 -0.00088236459 0
-10 0.00088236459 0
-10 6.014489e-06 0
-10 -7.9634093e-10 0
-10 -1.8993504e-12 0
-10 1.6596696e-16 0
-10 -3.57369e-18 0
-10 -7.6769438e-19 0
-10 -2.5235954e-16 0
-10 5.9311416e-16 0
-10 -5.1059299e-16 0
-10 -8.6223211e-18 0
-10 4.9446441e-16 0
-10 -5.0783013e-16 0
-10 -2.1200861e-17 0
-10 1.0254083e-17 0
-10 5.2796652e-16 0
-10 -5.2860686e-16 0
-10 -1.8254737e-18 0
-10 2.047442e-17 0
-10 4.9316087e-16 0
-10 -5.851788e-16 0
-10 1.8992486e-12 0
-10 7.9634088e-10 0
-10 -6.014489e-06 0
-10 -0.00088236459 0
-10 0.0008823646 0
-10 6.014489e-06 0
-10 -7.9634131e-10 0
-10 -1.8993507e-12 0
-10 1.6666108e-16 0
-10 -3.4136704e-18 0
-10 -8.3610746e-19 0
-10 -2.5288879e-16 0
-10 5.9306583e-16 0
-10 -5.1070624e-16 0
-10 -9.0286438e-18 0
-10 4.9388054e-16 0
-10 -5.0875699e-16 0
-10 -2.0614279e-17 0
-10 1.072115e-17 0
-10 5.2833429e-16 0
-10 -5.2876291e-16 0
-10 -1.8256668e-18 0
-10 2.0637235e-17 0
-10 4.9271253e-16 0
-10 -5.8547091e-16 0
-10 1.8992477e-12 0
-10 7.9634126e-10 0
-10 -6.014489e-06 0
-10 -0.0008823646 0
-10.000006 0.00088236658 0
-10.000006 6.0147354e-06 0
-10.000006 -7.9635417e-10 0
-10.000006 -1.899406e-12 0
-10.000006 1.6675315e-16 0
-10.000006 -3.4019582e-18 0
-10.000006 -8.4164186e-19 0
-10.000006 -2.5298049e-16 0
-10.000006 5.9304463e-16 0
-10.000006 -5.1072833e-16 0
-10.000006 -9.0863303e-18 0
-10.000006 4.9377047e-16 0
-10.000006 -5.0889285e-16 0
-10.000006 -2.0527481e-17 0
-10.000006 1.0793636e-17 0
-10.000006 5.2839767e-16 0
-10.000006 -5.287995e-16 0
-10.000006 -1.8255546e-18 0
-10.000006 2.0664971e-17 0
-10.000006 4.9264136e-16 0
-10.000006 -5.8555504e-16 0
-10.000006 1.8993023e-12 0
-10.000006 7.9635412e-10 0
-10.000006 -6.0147354e-06 0
-10.000006 -0.00088236658 0
-10.000834 0.00083365613 0
-10.000882 6.020318e-06 0
-10.000882 -7.6790672e-10 0
-10.000882 -1.9011154e-12 0
-10.000882 1.6249402e-16 0
-10.000882 -3.1355551e-18 0
-10.000882 -9.2492012e-19 0
-10.000882 -2.4706012e-16 0
-10.000882 5.7797407e-16 0
-10.000882 -4.9794219e-16 0
-10.000882 -9.3249945e-18 0
-10.000882 4.8064981e-16 0
-10.000882 -4.9702021e-16 0
-10.000882 -1.9366525e-17 0
-10.000882 1.1055025e-17 0
-10.000882 5.1541099e-16 0
-10.000882 -5.1548585e-16 0
-10.000882 -1.8256924e-18 0
-10.000882 2.0301101e-17 0
-10.000882 4.796991e-16 0
-10.000882 -5.703115e-16 0
-10.000882 1.9009919e-12 0
-10.000882 7.6790672e-10 0
-10.000882 -6.020318e-06 0
-10.000834 -0.00083365613 0
8.2874009 0.00096304152 0
8.2875873 7.8216816e-06 0
8.2875858 -1.0999335e-09 0
8.2875858 -3.1218324e-12 0
8.2875858 1.643922e-14 0
8.2875858 5.3891106e-15 0
8.2875858 -2.6974493e-15 0
8.2875858 -1.1060891e-14 0
8.2875858 6.4818139e-16 0
8.2875858 -5.9507823e-15 0
8.2875858 -1.0794792e-14 0
8.2875858 -1.56375e-14 0
8.2875858 -2.2125758e-14 0
8.2875858 1.6154454e-14 0
8.2875858 1.0796815e-14 0
8.2875858 1.1362592e-14 0
8.2875858 -5.7743443e-16 0
8.2875858 -2.3669011e-18 0
8.2875858 2.2475827e-17 0
8.2875858 -1.0246939e-14 0
8.2875858 -1.1501097e-14 0
8.2875858 3.1222361e-12 0
8.2875858 1.0999241e-09 0
8.2875873 -7.8216816e-06 0
8.2874009 -0.00096304152 0
10.00002 0.00088524983 0
10.000024 6.0144738e-06 0
10.000024 -7.9835099e-10 0
10.000024 -1.8992452e-12 0
10.000024 1.6524315e-16 0
10.000024 -3.7924571e-18 0
10.000024 -7.1544323e-19 0
10.000024 -2.5174848e-16 0
10.000024 5.9367299e-16 0
10.000024 -5.1078197e-16 0
10.000024 -7.9269509e-18 0
10.000024 4.9614092e-16 0
10.000024 -5.0656e-16 0
10.000024 -2.2495199e-17 0
10.000024 9.5335121e-18 0
10.000024 5.2777956e-16 0
10.000024 -5.2888754e-16 0
10.000024 -1.8256628e-18 0
10.000024 2.0348798e-17 0
10.000024 4.9407123e-16 0
10.000024 -5.8520732e-16 0
10.000024 1.8991406e-12 0
10.000024 7.9835098e-10 0
10.000024 -6.0144738e-06 0
10.00002 -0.00088524983 0
10 0.0008823646 0
10 6.0144874e-06 0
10 -7.9634118e-10 0
10 -1.8993499e-12 0
10 1.6506754e-16 0
10 -3.7233986e-18 0
10 -7.4088651e-19 0
10 -2.5174581e-16 0
10 5.93206e-16 0
10 -5.1043174e-16 0
10 -8.0940358e-18 0
10 4.9543087e-16 0
10 -5.0661354e-16 0
10 -2.211833e-17 0
10 9.6920819e-18 0
10 5.2753464e-16 0
10 -5.2852152e-16 0
10 -1.8257316e-18 0
10 2.0410436e-17 0
10 4.9348541e-16 0
10 -5.8443831e-16 0
10 1.899249e-12 0
10 7.9634112e-10 0
10 -6.0144874e-06 0
10 -0.0008823646 0
10 0.00088236459 0
10 6.014489e-06 0
10 -7.9634093e-10 0
10 -1.8993506e-12 0
10 1.646385e-16 0
10 -3.8324385e-18 0
10 -7.2227657e-19 0
10 -2.5141352e-16 0
10 5.9316903e-16 0
10 -5.1035374e-16 0
10 -7.8461051e-18 0
10 4.9584881e-16 0
10 -5.0598221e-16 0
10 -2.2599788e-17 0
10 9.4586954e-18 0
10 5.2731425e-16 0
10 -5.2843158e-16 0
10 -1.8246688e-18 0
10 2.0291739e-17 0
10 4.937502e-16 0
10 -5.8423888e-16 0
10 1.8992504e-12 0
10 7.9634087e-10 0
10 -6.014489e-06 0
10 -0.00088236459 0
10 0.00088236459 0
10 6.014489e-06 0
10 -7.9634093e-10 0
10 -1.8993505e-12 0
10 1.6483291e-16 0
10 -3.7751874e-18 0
10 -7.2306968e-19 0
10 -2.515786e-16 0
10 5.9319362e-16 0
10 -5.1042673e-16 0
10 -7.9760568e-18 0
10 4.9568371e-16 0
10 -5.0627192e-16 0
10 -2.2413734e-17 0
10 9.5810004e-18 0
10 5.2745501e-16 0
10 -5.2840179e-16 0
10 -1.826152e-18 0
10 2.0313655e-17 0
10 4.9364255e-16 0
10 -5.8435546e-16 0
10 1.8992501e-12 0
10 7.9634088e-10 0
10 -6.014489e-06 0
10 -0.00088236459 0
10 0.00088236459 0
10 6.014489e-06 0
10 -7.9634093e-10 0
10 -1.8993504e-12 0
10 1.6488001e-16 0
10 -3.7821992e-18 0
10 -7.526088e-19 0
10 -2.5160653e-16 0
10 5.9321845e-16 0
10 -5.1043236e-16 0
10 -7.9768728e-18 0
10 4.9564972e-16 0
10 -5.0632616e-16 0
10 -2.2331829e-17 0
10 9.6403503e-18 0
10 5.2740378e-16 0
10 -5.2850914e-16 0
10 -1.8246512e-18 0
10 2.0357136e-17 0
10 4.9358002e-16 0
10 -5.8434532e-16 0
10 1.8992501e-12 0
10 7.9634088e-10 0
10 -6.014489e-06 0
10 -0.00088236459 0
10 0.00088236459 0
10 6.014489e-06 0
10 -7.9634093e-10 0
10 -1.8993503e-12 0
10 1.6489025e-16 0
10 -3.7478721e-18 0
10 -7.5371906e-19 0
10 -2.5157183e-16 0
10 5.9318521e-16 0
10 -5.1043964e-16 0
10 -8.0056011e-18 0
10 4.9563516e-16 0
10 -5.063915e-16 0
10 -2.2348399e-17 0
10 9.5864083e-18 0
10 5.2754311e-16 0
10 -5.2847015e-16 0
10 -1.826047e-18 0
10 2.0324655e-17 0
10 4.9361656e-16 0
10 -5.8440387e-16 0
10 1.8992501e-12 0
10 7.9634088e-10 0
10 -6.014489e-06 0
10 -0.00088236459 0
10 0.00088236459 0
10 6.014489e-06 0
10 -7.9634093e-10 0
10 -1.8993501e-12 0
10 1.6479169e-16 0
10 -3.7889545e-18 0
10 -7.4747957e-19 0
10 -2.5152852e-16 0
10 5.9316471e-16 0
10 -5.1044256e-16 0
10 -7.9539582e-18 0
10 4.9568e-16 0