# vtk DataFile Version 4.0
hesp visualization file
ASCII
DATASET UNSTRUCTURED_GRID
POINTS 32 double
0.72101114 0.60123472 4
-0.2243433 2.1706243 4
-0.2243433 3.4416859 4
0.72101114 5.0110755 4
1.1990827 -1.3601619 4
1.7396316 1.771839 4
1.7396316 3.8404712 4
1.1990827 6.9724722 4
5.7761111 -3.60524 4
3.4867573 -0.077727628 4
3.4867573 5.6900379 4
5.7761111 9.2175502 4
8.591238 -4.0157991 4
9.3194625 1.3750695 4
9.3194625 4.2372408 4
8.591238 9.6281094 4
13.021072 -4.0157991 4
12.292848 1.3750695 4
12.292848 4.2372408 4
13.021072 9.6281094 4
15.836199 -3.60524 4
18.125553 -0.077727628 4
18.125553 5.6900379 4
15.836199 9.2175502 4
20.413228 -1.3601619 4
19.872679 1.771839 4
19.872679 3.8404712 4
20.413228 6.9724722 4
20.891299 0.60123472 4
21.836654 2.1706243 4
21.836654 3.4416859 4
20.891299 5.0110755 4
CELLS 0 0
CELL_TYPES 0
POINT_DATA 32
SCALARS m double
LOOKUP_TABLE default
1
1
1
1
1
1
1
1
1
1
1
1
1
1
1
1
1
1
1
1
1
1
1
1
1
1
1
1
1
1
1
1
VECTORS v double
-10.605778 -1.2935117 0
-11.96763 -0.17831598 0
-11.96763 0.17831598 0
-10.605778 1.2935117 0
-12.473302 -4.5732972 0
-9.6928756 -0.19616671 0
-9.6928756 0.19616671 0
-12.473302 4.5732972 0
-6.2417928 -8.7277536 0
-8.3028227 -3.1865418 0
-8.3028227 3.1865418 0
-6.2417928 8.7277536 0
-3.0712457 -7.7757385 0
-1.4051769 -0.91752378 0
-1.4051769 0.91752378 0
-3.0712457 7.7757385 0
3.0712457 -7.7757385 0
1.4051769 -0.91752378 0
1.4051769 0.91752378 0
3.0712457 7.7757385 0
6.2417928 -8.7277536 0
8.3028227 -3.1865418 0
8.3028227 3.1865418 0
6.2417928 8.7277536 0
12.473302 -4.5732972 0
9.6928756 -0.19616671 0
9.6928756 0.19616671 0
12.473302 4.5732972 0
10.605778 -1.2935117 0
11.96763 -0.17831598 0
11.96763 0.17831598 0
10.605778 1.2935117 0
