# vtk DataFile Version 4.0
hesp visualization file
ASCII
DATASET UNSTRUCTURED_GRID
POINTS 1250 double
31.109763 1.3376768 4
30.186567 2.3884305 4
30.208368 3.3673387 4
30.208367 4.4898481 4
30.208367 5.6123102 4
30.208367 6.7347723 4
30.208367 7.8572343 4
30.208367 8.9796964 4
30.208367 10.102158 4
30.208367 11.22462 4
30.208367 12.347083 4
30.208367 13.469545 4
30.208367 14.592007 4
30.208367 15.714469 4
30.208367 16.836931 4
30.208367 17.959393 4
30.208367 19.081855 4
30.208367 20.204317 4
30.208367 21.326779 4
30.208367 22.449241 4
30.208367 23.571703 4
30.208367 24.694165 4
30.208368 25.816675 4
30.186567 26.795583 4
31.109763 27.846336 4
31.605835 0.10267797 4
31.190479 2.3566149 4
31.118404 3.3675377 4
31.118403 4.4898484 4
31.118403 5.6123103 4
31.118403 6.7347723 4
31.118403 7.8572343 4
31.118403 8.9796964 4
31.118403 10.102158 4
31.118403 11.22462 4
31.118403 12.347083 4
31.118403 13.469545 4
31.118403 14.592007 4
31.118403 15.714469 4
31.118403 16.836931 4
31.118403 17.959393 4
31.118403 19.081855 4
31.118403 20.204317 4
31.118403 21.326779 4
31.118403 22.449241 4
31.118403 23.571703 4
31.118403 24.694165 4
31.118404 25.816475 4
31.190479 26.827398 4
31.605835 29.081335 4
31.116107 1.7998198 4
31.411726 2.5066684 4
31.535196 3.367214 4
31.535195 4.489848 4
31.535195 5.6123102 4
31.535195 6.7347723 4
31.535195 7.8572343 4
31.535195 8.9796964 4
31.535195 10.102158 4
31.535195 11.22462 4
31.535195 12.347083 4
31.535195 13.469545 4
31.535195 14.592007 4
31.535195 15.714469 4
31.535195 16.836931 4
31.535195 17.959393 4
31.535195 19.081855 4
31.535195 20.204317 4
31.535195 21.326779 4
31.535195 22.449241 4
31.535195 23.571703 4
31.535195 24.694165 4
31.535196 25.816799 4
31.411726 26.677345 4
31.116107 27.384193 4
31.889776 0.2290757 4
32.617334 2.0345677 4
32.445072 3.3674992 4
32.445072 4.4898483 4
32.445072 5.6123102 4
32.445072 6.7347723 4
32.445072 7.8572343 4
32.445072 8.9796964 4
32.445072 10.102158 4
32.445072 11.22462 4
32.445072 12.347083 4
32.445072 13.469545 4
32.445072 14.592007 4
32.445072 15.714469 4
32.445072 16.836931 4
32.445072 17.959393 4
32.445072 19.081855 4
32.445072 20.204317 4
32.445072 21.326779 4
32.445072 22.449241 4
32.445072 23.571703 4
32.445072 24.694165 4
32.445072 25.816514 4
32.617334 27.149445 4
31.889776 28.954938 4
33.4012 1.849321 4
32.653523 2.3279799 4
32.861995 3.3673081 4
32.861996 4.4898481 4
32.861996 5.6123102 4
32.861996 6.7347723 4
32.861996 7.8572343 4
32.861996 8.9796964 4
32.861996 10.102158 4
32.861996 11.22462 4
32.861996 12.347083 4
32.861996 13.469545 4
32.861996 14.592007 4
32.861996 15.714469 4
32.861996 16.836931 4
32.861996 17.959393 4
32.861996 19.081855 4
32.861996 20.204317 4
32.861996 21.326779 4
32.861996 22.449241 4
32.861996 23.571703 4
32.861996 24.694165 4
32.861995 25.816705 4
32.653523 26.856033 4
33.4012 27.334692 4
32.857129 1.0037064 4
33.797307 2.1286522 4
33.771646 3.3674104 4
33.771646 4.4898482 4
33.771646 5.6123102 4
33.771646 6.7347723 4
33.771646 7.8572343 4
33.771646 8.9796964 4
33.771646 10.102158 4
33.771646 11.22462 4
33.771646 12.347083 4
33.771646 13.469545 4
33.771646 14.592007 4
33.771646 15.714469 4
33.771646 16.836931 4
33.771646 17.959393 4
33.771646 19.081855 4
33.771646 20.204317 4
33.771646 21.326779 4
33.771646 22.449241 4
33.771646 23.571703 4
33.771646 24.694165 4
33.771646 25.816603 4
33.797307 27.055361 4
32.857129 28.180307 4
34.032064 1.4298575 4
34.158526 2.3058622 4
34.188668 3.3673736 4
34.188668 4.4898482 4
34.188668 5.6123102 4
34.188668 6.7347723 4
34.188668 7.8572343 4
34.188668 8.9796964 4
34.188668 10.102158 4
34.188668 11.22462 4
34.188668 12.347083 4
34.188668 13.469545 4
34.188668 14.592007 4
34.188668 15.714469 4
34.188668 16.836931 4
34.188668 17.959393 4
34.188668 19.081855 4
34.188668 20.204317 4
34.188668 21.326779 4
34.188668 22.449241 4
34.188668 23.571703 4
34.188668 24.694165 4
34.188668 25.81664 4
34.158526 26.878151 4
34.032064 27.754156 4
35.229894 0.88443456 4
35.098348 2.2344469 4
35.098177 3.3673877 4
35.098177 4.4898482 4
35.098177 5.6123102 4
35.098177 6.7347723 4
35.098177 7.8572343 4
35.098177 8.9796964 4
35.098177 10.102158 4
35.098177 11.22462 4
35.098177 12.347083 4
35.098177 13.469545 4
35.098177 14.592007 4
35.098177 15.714469 4
35.098177 16.836931 4
35.098177 17.959393 4
35.098177 19.081855 4
35.098177 20.204317 4
35.098177 21.326779 4
35.098177 22.449241 4
35.098177 23.571703 4
35.098177 24.694165 4
35.098177 25.816626 4
35.098348 26.949566 4
35.229894 28.299579 4
35.320984 1.1477488 4
35.51451 2.2496479 4
35.514724 3.3673855 4
35.514724 4.4898482 4
35.514724 5.6123102 4
35.514724 6.7347723 4
35.514724 7.8572343 4
35.514724 8.9796964 4
35.514724 10.102158 4
35.514724 11.22462 4
35.514724 12.347083 4
35.514724 13.469545 4
35.514724 14.592007 4
35.514724 15.714469 4
35.514724 16.836931 4
35.514724 17.959393 4
35.514724 19.081855 4
35.514724 20.204317 4
35.514724 21.326779 4
35.514724 22.449241 4
35.514724 23.571703 4
35.514724 24.694165 4
35.514724 25.816628 4
35.51451 26.934365 4
35.320984 28.036264 4
36.42462 1.1234795 4
36.424619 2.2449302 4
36.424619 3.3673861 4
36.424619 4.4898482 4
36.424619 5.6123102 4
36.424619 6.7347723 4
36.424619 7.8572343 4
36.424619 8.9796964 4
36.424619 10.102158 4
36.424619 11.22462 4
36.424619 12.347083 4
36.424619 13.469545 4
36.424619 14.592007 4
36.424619 15.714469 4
36.424619 16.836931 4
36.424619 17.959393 4
36.424619 19.081855 4
36.424619 20.204317 4
36.424619 21.326779 4
36.424619 22.449241 4
36.424619 23.571703 4
36.424619 24.694165 4
36.424619 25.816627 4
36.424619 26.939083 4
36.42462 28.060534 4
37.547083 1.1234794 4
37.547083 2.2449301 4
37.547083 3.3673861 4
37.547083 4.4898482 4
37.547083 5.6123102 4
37.547083 6.7347723 4
37.547083 7.8572343 4
37.547083 8.9796964 4
37.547083 10.102158 4
37.547083 11.22462 4
37.547083 12.347083 4
37.547083 13.469545 4
37.547083 14.592007 4
37.547083 15.714469 4
37.547083 16.836931 4
37.547083 17.959393 4
37.547083 19.081855 4
37.547083 20.204317 4
37.547083 21.326779 4
37.547083 22.449241 4
37.547083 23.571703 4
37.547083 24.694165 4
37.547083 25.816627 4
37.547083 26.939083 4
37.547083 28.060534 4
38.669545 1.1234794 4
38.669545 2.2449301 4
38.669545 3.3673861 4
38.669545 4.4898482 4
38.669545 5.6123102 4
38.669545 6.7347723 4
38.669545 7.8572343 4
38.669545 8.9796964 4
38.669545 10.102158 4
38.669545 11.22462 4
38.669545 12.347083 4
38.669545 13.469545 4
38.669545 14.592007 4
38.669545 15.714469 4
38.669545 16.836931 4
38.669545 17.959393 4
38.669545 19.081855 4
38.669545 20.204317 4
38.669545 21.326779 4
38.669545 22.449241 4
38.669545 23.571703 4
38.669545 24.694165 4
38.669545 25.816627 4
38.669545 26.939083 4
38.669545 28.060534 4
39.792007 1.1234794 4
39.792007 2.2449301 4
39.792007 3.3673861 4
39.792007 4.4898482 4
39.792007 5.6123102 4
39.792007 6.7347723 4
39.792007 7.8572343 4
39.792007 8.9796964 4
39.792007 10.102158 4
39.792007 11.22462 4
39.792007 12.347083 4
39.792007 13.469545 4
39.792007 14.592007 4
39.792007 15.714469 4
39.792007 16.836931 4
39.792007 17.959393 4
39.792007 19.081855 4
39.792007 20.204317 4
39.792007 21.326779 4
39.792007 22.449241 4
39.792007 23.571703 4
39.792007 24.694165 4
39.792007 25.816627 4
39.792007 26.939083 4
39.792007 28.060534 4
40.914469 1.1234794 4
40.914469 2.2449301 4
40.914469 3.3673861 4
40.914469 4.4898482 4
40.914469 5.6123102 4
40.914469 6.7347723 4
40.914469 7.8572343 4
40.914469 8.9796964 4
40.914469 10.102158 4
40.914469 11.22462 4
40.914469 12.347083 4
40.914469 13.469545 4
40.914469 14.592007 4
40.914469 15.714469 4
40.914469 16.836931 4
40.914469 17.959393 4
40.914469 19.081855 4
40.914469 20.204317 4
40.914469 21.326779 4
40.914469 22.449241 4
40.914469 23.571703 4
40.914469 24.694165 4
40.914469 25.816627 4
40.914469 26.939083 4
40.914469 28.060534 4
42.036931 1.1234794 4
42.036931 2.2449301 4
42.036931 3.3673861 4
42.036931 4.4898482 4
42.036931 5.6123102 4
42.036931 6.7347723 4
42.036931 7.8572343 4
42.036931 8.9796964 4
42.036931 10.102158 4
42.036931 11.22462 4
42.036931 12.347083 4
42.036931 13.469545 4
42.036931 14.592007 4
42.036931 15.714469 4
42.036931 16.836931 4
42.036931 17.959393 4
42.036931 19.081855 4
42.036931 20.204317 4
42.036931 21.326779 4
42.036931 22.449241 4
42.036931 23.571703 4
42.036931 24.694165 4
42.036931 25.816627 4
42.036931 26.939083 4
42.036931 28.060534 4
43.159393 1.1234794 4
43.159393 2.2449301 4
43.159393 3.3673861 4
43.159393 4.4898482 4
43.159393 5.6123102 4
43.159393 6.7347723 4
43.159393 7.8572343 4
43.159393 8.9796964 4
43.159393 10.102158 4
43.159393 11.22462 4
43.159393 12.347083 4
43.159393 13.469545 4
43.159393 14.592007 4
43.159393 15.714469 4
43.159393 16.836931 4
43.159393 17.959393 4
43.159393 19.081855 4
43.159393 20.204317 4
43.159393 21.326779 4
43.159393 22.449241 4
43.159393 23.571703 4
43.159393 24.694165 4
43.159393 25.816627 4
43.159393 26.939083 4
43.159393 28.060534 4
44.281855 1.1234794 4
44.281855 2.2449301 4
44.281855 3.3673861 4
44.281855 4.4898482 4
44.281855 5.6123102 4
44.281855 6.7347723 4
44.281855 7.8572343 4
44.281855 8.9796964 4
44.281855 10.102158 4
44.281855 11.22462 4
44.281855 12.347083 4
44.281855 13.469545 4
44.281855 14.592007 4
44.281855 15.714469 4
44.281855 16.836931 4
44.281855 17.959393 4
44.281855 19.081855 4
44.281855 20.204317 4
44.281855 21.326779 4
44.281855 22.449241 4
44.281855 23.571703 4
44.281855 24.694165 4
44.281855 25.816627 4
44.281855 26.939083 4
44.281855 28.060534 4
45.404317 1.1234794 4
45.404317 2.2449301 4
45.404317 3.3673861 4
45.404317 4.4898482 4
45.404317 5.6123102 4
45.404317 6.7347723 4
45.404317 7.8572343 4
45.404317 8.9796964 4
45.404317 10.102158 4
45.404317 11.22462 4
45.404317 12.347083 4
45.404317 13.469545 4
45.404317 14.592007 4
45.404317 15.714469 4
45.404317 16.836931 4
45.404317 17.959393 4
45.404317 19.081855 4
45.404317 20.204317 4
45.404317 21.326779 4
45.404317 22.449241 4
45.404317 23.571703 4
45.404317 24.694165 4
45.404317 25.816627 4
45.404317 26.939083 4
45.404317 28.060534 4
46.526779 1.1234794 4
[...]
POINT_DATA 1250
SCALARS m double
LOOKUP_TABLE default
1
1
1
1
1
1
1
1
1
1
1
1
1
1
1
1
1
1
1
1
1
1
1
1
1
1
1
1
1
1
1
1
1
1
1
1
1
1
1
1
1
1
1
1
1
1
1
1
1
1
1
1
1
1
1
1
1
1
1
1
1
1
1
1
1
1
1
1
1
1
1
1
1
1
1
1
1
1
1
1
1
1
1
1
1
1
1
1
1
1
1
1
1
1
1
1
1
1
1
1
1
1
1
1
1
1
1
1
1
1
1
1
1
1
1
1
1
1
1
1
1
1
1
1
1
1
1
1
1
1
1
1
1
1
1
1
1
1
1
1
1
1
1
1
1
1
1
1
1
1
1
1
1
1
1
1
1
1
1
1
1
1
1
1
1
1
1
1
1
1
1
1
1
1
1
1
1
1
1
1
1
1
1
1
1
1
1
1
1
1
1
1
1
1
1
1
1
1
1
1
1
1
1
1
1
1
1
1
1
1
1
1
1
1
1
1
1
1
1
1
1
1
1
1
1
1
1
1
1
1
1
1
1
1
1
1
1
1
1
1
1
1
1
1
1
1
1
1
1
1
1
1
1
1
1
1
1
1
1
1
1
1
1
1
1
1
1
1
1
1
1
1
1
1
1
1
1
1
1
1
1
1
1
1
1
1
1
1
1
1
1
1
1
1
1
1
1
1
1
1
1
1
1
1
1
1
1
1
1
1
1
1
1
1
1
1
1
1
1
1
1
1
1
1
1
1
1
1
1
1
1
1
1
1
1
1
1
1
1
1
1
1
1
1
1
1
1
1
1
1
1
1
1
1
1
1
1
1
1
1
1
1
1
1
1
1
1
1
1
1
1
1
1
1
1
1
1
1
1
1
1
1
1
1
1
1
1
1
1
1
1
1
1
1
1
1
1
1
1
1
1
1
1
1
1
1
1
1
1
1
1
1
1
1
1
1
1
1
1
1
1
1
1
1
1
1
1
1
1
1
1
1
1
1
1
1
1
1
1
1
1
1
1
1
1
1
1
1
1
1
1
1
1
1
1
1
1
1
1
1
1
1
1
1
1
1
1
1
1
1
1
1
1
1
1
1
1
1
1
1
1
1
1
1
1
1
1
1
1
1
1
1
1
1
1
1
1
1
1
1
1
1
1
1
1
1
1
1
1
1
1
1
1
1
1
1
1
1
1
1
1
1
1
1
1
1
1
1
1
1
1
1
1
1
1
1
1
1
1
1
1
1
1
1
1
1
1
1
1
1
1
1
1
1
1
1
1
1
1
1
1
1
1
1
1
1
1
1
1
1
1
1
1
1
1
1
1
1
1
1
1
1
1
1
1
1
1
1
1
1
1
1
1
1
1
1
1
1
1
1
1
1
1
1
1
1
1
1
1
1
1
1
1
1
1
1
1
1
1
1
1
1
1
1
1
1
1
1
1
1
1
1
1
1
1
1
1
1
1
1
1
1
1
1
1
1
1
1
1
1
1
1
1
1
1
1
1
1
1
1
1
1
1
1
1
1
1
1
1
1
1
1
1
1
1
1
1
1
1
1
1
1
1
1
1
1
1
1
1
1
1
1
1
1
1
1
1
1
1
1
1
1
1
1
1
1
1
1
1
1
1
1
1
1
1
1
1
1
1
1
1
1
1
1
1
1
1
1
1
1
1
1
1
1
1
1
1
1
1
1
1
1
1
1
1
1
1
1
1
1
1
1
1
1
1
1
1
1
1
1
1
1
1
1
1
1
1
1
1
1
1
1
1
1
1
1
1
1
1
1
1
1
1
1
1
1
1
1
1
1
1
1
1
1
1
1
1
1
1
1
1
1
1
1
1
1
1
1
1
1
1
1
1
1
1
1
1
1
1
1
1
1
1
1
1
1
1
1
1
1
1
1
1
1
1
1
1
1
1
1
1
1
1
1
1
1
1
1
1
1
1
1
1
1
1
1
1
1
1
1
1
1
1
1
1
1
1
1
1
1
1
1
1
1
1
1
1
1
1
1
1
1
1
1
1
1
1
1
1
1
1
1
1
1
1
1
1
1
1
1
1
1
1
1
1
1
1
1
1
1
1
1
1
1
1
1
1
1
1
1
1
1
1
1
1
1
1
1
1
1
1
1
1
1
1
1
1
1
1
1
1
1
1
1
1
1
1
1
1
1
1
1
1
1
1
1
1
1
1
1
1
1
1
1
1
1
1
1
1
1
1
1
1
1
1
1
1
1
1
1
1
1
1
1
1
1
1
1
1
1
1
1
1
1
1
1
1
1
1
1
1
1
1
1
1
1
1
1
1
1
1
1
1
1
1
1
1
1
1
1
1
1
1
1
1
1
1
1
1
1
1
1
1
1
1
1
1
1
1
1
1
1
1
1
1
1
1
1
1
1
1
1
1
1
1
1
1
1
1
1
1
1
1
1
1
1
1
1
1
1
1
1
1
1
1
1
1
1
1
1
1
1
1
1
1
1
1
1
1
1
1
1
1
1
1
1
1
1
1
1
1
1
1
1
1
1
1
1
1
1
1
1
1
1
1
1
1
1
1
1
1
1
1
1
1
1
1
1
1
1
1
1
1
1
1
1
1
1
1
1
1
1
1
1
1
1
1
1
1
1
1
1
1
1
1
1
1
1
1
1
1
1
1
1
1
1
1
1
1
1
1
1
1
1
1
1
1
1
1
1
1
1
1
1
1
1
1
1
1
1
1
1
1
1
1
1
1
1
1
1
1
1
1
1
1
1
1
1
1
1
1
1
1
1
1
1
1
1
1
1
1
1
1
1
1
1
1
1
1
1
1
1
1
1
1
1
1
1
1
1
1
1
1
1
1
1
1
1
1
1
VECTORS v double
9.8960578 1.4669863 0
9.663983 2.4902845 0
10.024805 -0.0011490097 0
10.024797 -2.976258e-06 0
10.024797 -2.2215719e-06 0
10.024797 6.9676589e-11 0
10.024797 -2.0871976e-13 0
10.024797 4.5525654e-11 0
10.024797 4.5213666e-15 0
10.024797 -3.7597878e-13 0
10.024797 4.5102191e-11 0
10.024797 5.4118139e-10 0
10.024797 4.3182131e-08 0
10.024797 -5.4260448e-10 0
10.024797 7.4763266e-13 0
10.024797 7.4933796e-13 0
10.024797 -3.6652974e-15 0
10.024797 -1.8615518e-17 0
10.024797 1.5426395e-16 0
10.024797 -1.3244835e-12 0
10.024797 -3.4630947e-10 0
10.024797 2.7865574e-06 0
10.024805 0.0011499366 0
9.6639831 -2.4902834 0
9.8960578 -1.4669863 0
3.6116826 -9.3983769 0
-7.7693475 2.1535382 0
-10.023576 0.010095218 0
-10.023642 1.0757705e-05 0
-10.023642 1.4165997e-06 0
-10.023642 -4.1071204e-11 0
-10.023642 -1.9529799e-13 0
-10.023642 -7.7831864e-13 0
-10.023642 3.9884328e-15 0
-10.023642 -3.9175734e-13 0
-10.023642 -7.7478473e-13 0
-10.023642 -1.7386896e-10 0
-10.023642 -2.3697956e-08 0
-10.023642 1.7445666e-10 0
-10.023642 7.748334e-13 0
-10.023642 7.8020664e-13 0
-10.023642 -3.5450238e-15 0
-10.023642 -1.770045e-17 0
-10.023642 1.1225279e-16 0
-10.023642 -8.5251556e-13 0
-10.023642 4.508419e-10 0
-10.023642 -1.0842284e-05 0
-10.023576 -0.010103728 0
-7.7693492 -2.1535346 0
3.6116826 9.3983768 0
-0.63703157 -5.027887 0
5.1299151 12.956828 0
10.025897 -0.011309408 0
10.025903 -1.3752859e-05 0
10.025903 -1.3003636e-06 0
10.025903 2.7867105e-11 0
10.025903 -1.768891e-13 0
10.025903 -4.8703607e-13 0
10.025903 3.8386742e-15 0
10.025903 -2.4599935e-13 0
10.025903 -4.8364765e-13 0
10.025903 1.4149423e-10 0
10.025903 2.0999316e-08 0
10.025903 -1.4169499e-10 0
10.025903 4.8506077e-13 0
10.025903 4.8881388e-13 0
10.025903 -3.4162603e-15 0
10.025903 -1.6389605e-17 0
10.025903 1.4464708e-16 0
10.025903 -3.6459227e-13 0
10.025903 -5.1892598e-10 0
10.025903 1.3849431e-05 0
10.025897 0.011318095 0
5.1299189 -12.95683 0
-0.63703384 5.0278855 0
-6.5871699 -8.1598474 0
9.0894534 -4.2573094 0
-10.022789 0.0066122979 0
-10.022805 8.5156063e-06 0
-10.022804 3.7165148e-07 0
-10.022804 -6.4236868e-12 0
-10.022804 -1.4747483e-13 0
-10.022804 -5.2272686e-13 0
-10.022804 3.6904537e-15 0
-10.022804 -2.6375755e-13 0
-10.022804 -5.2125237e-13 0
-10.022804 -8.6045187e-13 0
-10.022804 -3.3962997e-09 0
-10.022804 8.1881681e-13 0
-10.022804 5.2114569e-13 0
-10.022804 5.2444202e-13 0
-10.022804 -3.2854315e-15 0
-10.022804 -1.5275987e-17 0
-10.022804 1.2717752e-16 0
-10.022804 -4.5290745e-13 0
-10.022804 -6.8169281e-11 0
-10.022805 -8.6291616e-06 0
-10.022789 -0.0066184884 0
9.0894526 4.2573113 0
-6.5871699 8.1598474 0
6.4552535 7.0158832 0
-9.6820373 2.0359323 0
10.026642 -0.0060161923 0
10.026669 -8.0166739e-06 0
10.02667 -3.197325e-07 0
10.02667 1.0047425e-12 0
10.02667 -1.0614703e-13 0
10.02667 -4.2424642e-13 0
10.02667 3.5443597e-15 0
10.02667 -2.1442694e-13 0
10.02667 -4.2264835e-13 0
10.02667 -5.3474025e-13 0
10.02667 2.7695949e-09 0
10.02667 6.5550722e-13 0
10.02667 4.2295717e-13 0
10.02667 4.25904e-13 0
10.02667 -3.1559526e-15 0
10.02667 -1.4181233e-17 0
10.02667 1.1514596e-16 0
10.02667 -1.4800551e-13 0
10.02667 3.4455353e-10 0
10.026669 8.1233443e-06 0
10.026642 0.006021863 0
-9.6820362 -2.0359347 0
6.4552534 -7.0158832 0
-9.971238 -1.0526103 0
-8.112624 -6.4191581 0
-10.022571 0.001339877 0
-10.02258 1.1218499e-06 0
-10.02258 3.3227907e-08 0
-10.02258 -2.35077e-13 0
-10.02258 -5.7633233e-14 0
-10.02258 -2.3650768e-13 0
-10.02258 3.3995135e-15 0
-10.02258 -1.2045994e-13 0
-10.02258 -2.3512747e-13 0
-10.02258 -3.4962994e-13 0
-10.02258 -4.7156336e-13 0
-10.02258 3.5260522e-13 0
-10.02258 2.3511277e-13 0
-10.02258 2.3809323e-13 0
-10.02258 -3.0274673e-15 0
-10.02258 -1.3045897e-17 0
-10.02258 1.1831998e-16 0
-10.02258 -2.3754838e-13 0
-10.02258 -1.7678338e-10 0
-10.02258 -1.1593054e-06 0
-10.022571 -0.001341441 0
-8.1126249 6.4191568 0
-9.971238 1.0526103 0
-9.0500713 4.7319373 0
8.0342735 5.4369765 0
10.026948 -0.0011003962 0
10.026954 -5.6127067e-07 0
10.026954 -2.7175918e-08 0
10.026954 -2.2022254e-13 0
10.026954 -3.6844141e-14 0
10.026954 -1.4288612e-13 0
10.026954 3.2519784e-15 0
10.026954 -7.3554285e-14 0
10.026954 -1.4155316e-13 0
10.026954 -2.0952267e-13 0
10.026954 -2.8581002e-13 0
10.026954 2.1216024e-13 0
10.026954 1.415627e-13 0
10.026954 1.4440229e-13 0
10.026954 -2.8967943e-15 0
10.026954 -1.1897142e-17 0
10.026954 1.1562445e-16 0
10.026954 -5.6079393e-14 0
10.026954 2.2132262e-10 0
10.026954 5.9374089e-07 0
10.026948 0.0011017358 0
8.0342744 -5.4369754 0
-9.0500713 -4.7319373 0
4.9432922 -9.69883 0
-10.010685 -0.55429875 0
-10.02317 8.4151116e-05 0
-10.02317 -3.7168581e-08 0
-10.02317 1.8362501e-11 0
-10.02317 5.7174788e-14 0
-10.02317 -3.1548245e-14 0
-10.02317 -1.2795814e-13 0
-10.02317 3.1061705e-15 0
-10.02317 -6.599427e-14 0
-10.02317 -1.2668329e-13 0
-10.02317 -1.8736676e-13 0
-10.02317 -2.5593131e-13 0
-10.02317 1.8984371e-13 0
-10.02317 1.2669243e-13 0
-10.02317 1.2940437e-13 0
-10.02317 -2.7672059e-15 0
-10.02317 -1.0743068e-17 0
-10.02317 1.0494092e-16 0
-10.02317 -1.1949743e-13 0
-10.02317 -5.3984021e-12 0
-10.02317 3.3311858e-08 0
-10.02317 -8.4280781e-05 0
-10.010685 0.55429863 0
4.9432922 9.69883 0
-5.9432573 5.8782711 0
10.012511 0.45221985 0
10.025695 -6.090249e-05 0
10.025696 3.2103586e-08 0
10.025696 -1.680014e-11 0
10.025696 -7.7143615e-16 0
10.025696 -3.7842324e-16 0
10.025696 -2.7549406e-15 0
10.025696 2.9619247e-15 0
10.025696 -3.2974658e-15 0
10.025696 -1.5381331e-15 0
10.025696 2.2670181e-16 0
10.025696 -5.5256202e-15 0
10.025696 2.1360028e-15 0
10.025696 1.5463099e-15 0
10.025696 4.1320244e-15 0
10.025696 -2.6392726e-15 0
10.025696 -9.5949581e-18 0
10.025696 1.0193099e-16 0
10.025696 2.349279e-15 0
10.025696 4.407041e-12 0
10.025696 -2.8956186e-08 0
10.025695 6.1008233e-05 0
10.012511 -0.45221974 0
-5.9432573 -5.8782711 0
-10.000062 0.0042458586 0
-10.000166 2.5600397e-05 0
-10.000171 9.9038618e-08 0
-10.000171 -2.0027409e-09 0
-10.000171 5.3074731e-13 0
-10.000171 -3.6905635e-17 0
-10.000171 -3.5352688e-18 0
-10.000171 -1.2119894e-15 0
-10.000171 2.8493712e-15 0
-10.000171 -2.4521633e-15 0
-10.000171 -4.0943466e-17 0
-10.000171 2.3759866e-15 0
-10.000171 -2.4378684e-15 0
-10.000171 -1.0290256e-16 0
-10.000171 4.867924e-17 0
-10.000171 2.5357549e-15 0
-10.000171 -2.5394159e-15 0
-10.000171 -8.8338136e-18 0
-10.000171 9.8252579e-17 0
-10.000171 2.3770159e-15 0
-10.000171 -5.3299455e-13 0
-10.000171 2.0027406e-09 0
-10.000171 -9.9038535e-08 0
-10.000166 -2.5600397e-05 0
-10.000062 -0.0042458586 0
-10.000001 0.0042434577 0
-10.000001 2.1128622e-05 0
-10.000001 -8.3833108e-08 0
-10.000001 -1.4458477e-10 0
-10.000001 2.9421263e-13 0
-10.000001 3.7577297e-16 0
-10.000001 -3.5739939e-18 0
-10.000001 -1.2105245e-15 0
-10.000001 2.8467158e-15 0
-10.000001 -2.4506044e-15 0
-10.000001 -4.1074358e-17 0
-10.000001 2.3740159e-15 0
-10.000001 -2.4358633e-15 0
-10.000001 -1.0289329e-16 0
-10.000001 4.8809974e-17 0
-10.000001 2.5335708e-15 0
-10.000001 -2.537219e-15 0
-10.000001 -8.7688476e-18 0
-10.000001 9.8131721e-17 0
-10.000001 1.9759716e-15 0
-10.000001 -2.9592065e-13 0
-10.000001 1.4458397e-10 0
-10.000001 8.3833107e-08 0
-10.000001 -2.1128622e-05 0
-10.000001 -0.0042434577 0
-10 0.0042433074 0
-10 2.0992103e-05 0
-10 -8.3580943e-08 0
-10 -1.4461904e-10 0
-10 2.9447425e-13 0
-10 3.7577887e-16 0
-10 -3.5427083e-18 0
-10 -1.2110378e-15 0
-10 2.846804e-15 0
-10 -2.4504114e-15 0
-10 -4.110753e-17 0
-10 2.37358e-15 0
-10 -2.4360315e-15 0
-10 -1.0249845e-16 0
-10 4.9119565e-17 0
-10 2.5337505e-15 0
-10 -2.5371134e-15 0
-10 -8.7595676e-18 0
-10 9.8088927e-17 0
-10 1.9758269e-15 0
-10 -2.9617977e-13 0
-10 1.4461832e-10 0
-10 8.3580942e-08 0
-10 -2.0992103e-05 0
-10 -0.0042433074 0
-10 0.0042433074 0
-10 2.0992103e-05 0
-10 -8.358093e-08 0
-10 -1.4461906e-10 0
-10 2.9447424e-13 0
-10 3.7565496e-16 0
-10 -3.6247731e-18 0
-10 -1.2112645e-15 0
-10 2.8469339e-15 0
-10 -2.4500039e-15 0
-10 -4.1052755e-17 0
-10 2.3736673e-15 0
-10 -2.4362276e-15 0
-10 -1.0250004e-16 0
-10 4.8662154e-17 0
-10 2.5337317e-15 0
-10 -2.5371645e-15 0
-10 -8.7573475e-18 0
-10 9.803368e-17 0
-10 1.9759606e-15 0
-10 -2.9617985e-13 0
-10 1.4461834e-10 0
-10 8.3580929e-08 0
-10 -2.0992103e-05 0
-10 -0.0042433074 0
-10 0.0042433074 0
-10 2.0992103e-05 0
-10 -8.358093e-08 0
-10 -1.4461906e-10 0
-10 2.9447425e-13 0
-10 3.7566364e-16 0
-10 -3.6247731e-18 0
-10 -1.21064e-15 0
-10 2.8469339e-15 0
-10 -2.4506284e-15 0
-10 -4.1052755e-17 0
-10 2.3738754e-15 0
-10 -2.436231e-15 0
-10 -1.0250004e-16 0
-10 4.8662154e-17 0
-10 2.5337317e-15 0
-10 -2.5371645e-15 0
-10 -8.7573475e-18 0
-10 9.803368e-17 0
-10 1.9759611e-15 0
-10 -2.9617978e-13 0
-10 1.4461834e-10 0
-10 8.3580929e-08 0
-10 -2.0992103e-05 0
-10 -0.0042433074 0
-10 0.0042433074 0
-10 2.0992103e-05 0
-10 -8.358093e-08 0
-10 -1.4461906e-10 0
-10 2.9447421e-13 0
-10 3.757769e-16 0
-10 -3.6034613e-18 0
-10 -1.2106649e-15 0
-10 2.8466858e-15 0
-10 -2.4507001e-15 0
-10 -4.1246383e-17 0
-10 2.3737843e-15 0
-10 -2.4363971e-15 0
-10 -1.0260034e-16 0
-10 4.8941152e-17 0
-10 2.5337213e-15 0
-10 -2.5371764e-15 0
-10 -8.7692263e-18 0
-10 9.8085128e-17 0
-10 1.9759182e-15 0
-10 -2.9617978e-13 0
-10 1.4461834e-10 0
-10 8.3580929e-08 0
-10 -2.0992103e-05 0
-10 -0.0042433074 0
-10 0.0042433074 0
-10 2.0992103e-05 0
-10 -8.358093e-08 0
-10 -1.4461906e-10 0
-10 2.9447421e-13 0
-10 3.7576586e-16 0
-10 -3.5392389e-18 0
-10 -1.2109685e-15 0
-10 2.8467902e-15 0
-10 -2.4504166e-15 0
-10 -4.1084979e-17 0
-10 2.3736138e-15 0
-10 -2.4359291e-15 0
-10 -1.0256957e-16 0
-10 4.9116095e-17 0
-10 2.5337141e-15 0
-10 -2.5370822e-15 0
-10 -8.7595676e-18 0
-10 9.8053365e-17 0
-10 1.9759021e-15 0
-10 -2.9617979e-13 0
-10 1.4461834e-10 0
-10 8.3580929e-08 0
-10 -2.0992103e-05 0
-10 -0.0042433074 0
-10 0.0042433074 0
-10 2.0992103e-05 0
-10 -8.358093e-08 0
-10 -1.4461906e-10 0
-10 2.9447402e-13 0
-10 3.7565843e-16 0
-10 -3.6247731e-18 0
-10 -1.2112645e-15 0
-10 2.8469339e-15 0
-10 -2.4500039e-15 0
-10 -4.1052755e-17 0
-10 2.3736673e-15 0
-10 -2.436231e-15 0
-10 -1.0250004e-16 0
-10 4.8662154e-17 0
-10 2.5337317e-15 0
-10 -2.5371645e-15 0
-10 -8.7573475e-18 0
-10 9.803368e-17 0
-10 1.9759612e-15 0
-10 -2.9617949e-13 0
-10 1.4461834e-10 0
-10 8.3580929e-08 0
-10 -2.0992103e-05 0
-10 -0.0042433074 0
-10 0.0042433074 0
-10 2.0992103e-05 0
-10 -8.358093e-08 0
-10 -1.4461906e-10 0
-10 2.9447414e-13 0
-10 3.7567058e-16 0
-10 -3.6247731e-18 0
-10 -1.21064e-15 0
-10 2.8469339e-15 0
-10 -2.4506284e-15 0
-10 -4.1052755e-17 0
-10 2.3738754e-15 0
-10 -2.436231e-15 0
-10 -1.0250004e-16 0
-10 4.8662154e-17 0
-10 2.5337317e-15 0
-10 -2.5371645e-15 0
-10 -8.7573475e-18 0
-10 9.803368e-17 0
-10 1.9759607e-15 0
-10 -2.9617956e-13 0
-10 1.4461834e-10 0
-10 8.3580929e-08 0
-10 -2.0992103e-05 0
-10 -0.0042433074 0
-10 0.0042433074 0
-10 2.0992103e-05 0
-10 -8.358093e-08 0
-10 -1.4461906e-10 0
-10 2.9447415e-13 0
-10 3.7567925e-16 0
-10 -3.6247731e-18 0
-10 -1.21064e-15 0
-10 2.8469339e-15 0
-10 -2.4506284e-15 0
-10 -4.1052755e-17 0
-10 2.3738754e-15 0
-10 -2.4364392e-15 0
-10 -1.0250004e-16 0
-10 4.8662154e-17 0
-10 2.5337317e-15 0
-10 -2.5371645e-15 0
-10 -8.7573475e-18 0
-10 9.803368e-17 0
-10 1.9759612e-15 0
-10 -2.9617956e-13 0
-10 1.4461834e-10 0
-10 8.3580929e-08 0
-10 -2.0992103e-05 0
-10 -0.0042433074 0
-10 0.0042433074 0
-10 2.0992103e-05 0
-10 -8.358093e-08 0
-10 -1.4461906e-10 0
-10 2.9447397e-13 0
-10 3.7582783e-16 0
-10 -3.5511659e-18 0
-10 -1.2109375e-15 0
-10 2.8468913e-15 0
-10 -2.4506048e-15 0
-10 -4.1221182e-17 0
-10 2.3737332e-15 0
-10 -2.4363077e-15 0
-10 -1.0263307e-16 0
-10 4.8904209e-17 0
-10 2.5335724e-15 0
-10 -2.537042e-15 0
-10 -8.7714464e-18 0
-10 9.8061002e-17 0
-10 1.9756855e-15 0
-10 -2.9617956e-13 0
-10 1.4461834e-10 0
-10 8.3580929e-08 0
-10 -2.0992103e-05 0
-10 -0.0042433074 0
-10 0.0042433074 0
-10 2.0992103e-05 0
-10 -8.358093e-08 0
-10 -1.4461906e-10 0
-10 2.9447417e-13 0
-10 3.7591169e-16 0
-10 -3.5914137e-18 0
-10 -1.2113041e-15 0
-10 2.8471749e-15 0
-10 -2.4506503e-15 0
-10 -4.1014676e-17 0
-10 2.3740723e-15 0
-10 -2.4364702e-15 0
-10 -1.022748e-16 0
-10 4.8908297e-17 0
-10 2.5335894e-15 0
-10 -2.5372204e-15 0
-10 -8.7618473e-18 0
-10 9.8160968e-17 0
-10 1.975143e-15 0
-10 -2.9617957e-13 0
-10 1.4461834e-10 0
-10 8.3580929e-08 0
-10 -2.0992103e-05 0
-10 -0.0042433074 0
-10 0.0042433074 0
-10 2.0992103e-05 0
-10 -8.358093e-08 0
-10 -1.4461904e-10 0
-10 2.9447422e-13 0
-10 3.7588387e-16 0
-10 -3.5881448e-18 0
-10 -1.2109679e-15 0
-10 2.8469508e-15 0
-10 -2.450548e-15 0
-10 -4.109492e-17 0
-10 2.373899e-15 0
-10 -2.4365791e-15 0
-10 -1.0246967e-16 0
-10 4.8934416e-17 0
-10 2.5338213e-15 0
-10 -2.5375259e-15 0
-10 -8.7631387e-18 0
-10 9.8522136e-17 0
-10 1.9753576e-15 0
-10 -2.9617974e-13 0
-10 1.4461832e-10 0
-10 8.3580929e-08 0
-10 -2.0992103e-05 0
-10 -0.0042433074 0
-9.9999999 0.0042433089 0
-9.9999999 2.0992084e-05 0
-9.9999999 -8.3581899e-08 0
-9.9999999 -1.4461832e-10 0
-9.9999999 2.9447825e-13 0
-9.9999999 3.7583314e-16 0
-9.9999999 -3.5234066e-18 0
-9.9999999 -1.2105709e-15 0
-9.9999999 2.8468895e-15 0
-9.9999999 -2.4503737e-15 0
-9.9999999 -4.080591e-17 0
-9.9999999 2.37427e-15 0
-9.9999999 -2.4356236e-15 0
-9.9999999 -1.0325398e-16 0
-9.9999999 4.8702142e-17 0
-9.9999999 2.5334089e-15 0
-9.9999999 -2.5375337e-15 0
-9.9999999 -8.7632259e-18 0
-9.9999999 9.85266e-17 0
-9.9999999 1.975651e-15 0
-9.9999999 -2.961849e-13 0
-9.9999999 1.446176e-10 0
-9.9999999 8.3581898e-08 0
-9.9999999 -2.0992084e-05 0
-9.9999999 -0.0042433089 0
-10.000022 0.0042435282 0
-10.000021 2.1018843e-05 0
-10.000021 -8.3614259e-08 0
-10.000021 -1.4474203e-10 0
-10.000021 2.9461631e-13 0
-10.000021 3.7644229e-16 0
-10.000021 -3.7531793e-18 0
-10.000021 -1.2122536e-15 0
-10.000021 2.8469382e-15 0
-10.000021 -2.4509656e-15 0
-10.000021 -4.2044817e-17 0
-10.000021 2.3725473e-15 0
-10.000021 -2.4388666e-15 0
-10.000021 -1.0111949e-16 0
-10.000021 5.0045003e-17 0
-10.000021 2.5347994e-15 0
-10.000021 -2.5379319e-15 0
-10.000021 -8.7634468e-18 0
-10.000021 9.8816276e-17 0
-10.000021 1.9741223e-15 0
-10.000021 -2.9635565e-13 0
-10.000021 1.4474122e-10 0
-10.000021 8.3614259e-08 0
-10.000021 -2.1018843e-05 0
-10.000022 -0.0042435282 0
-10.004009 0.0040091877 0
-10.004244 2.1639245e-05 0
-10.004243 -8.0893651e-08 0
-10.004243 -1.4895667e-10 0
-10.004243 2.8657719e-13 0
-10.004243 3.8216424e-16 0
-10.004243 -4.0989169e-18 0
-10.004243 -1.1834504e-15 0
-10.004243 2.7745614e-15 0
-10.004243 -2.3894388e-15 0
-10.004243 -4.2766776e-17 0
-10.004243 2.3100374e-15 0
-10.004243 -2.3809678e-15 0
-10.004243 -9.6123627e-17 0
-10.004243 5.0943419e-17 0
-10.004243 2.4721154e-15 0
-10.004243 -2.4739588e-15 0
-10.004243 -8.7633233e-18 0
-10.004243 9.7022012e-17 0
-10.004243 1.9082551e-15 0
-10.004243 -2.8817313e-13 0
-10.004243 1.4895533e-10 0
-10.004243 8.0893652e-08 0
-10.004244 -2.1639245e-05 0
-10.004009 -0.0040091877 0
-9.8960578 1.4669863 0
-9.6639829 2.4902841 0
-10.024805 -0.0011494204 0
-10.024797 -2.7678416e-06 0
-10.024797 2.2380599e-06 0
-10.024797 -7.022595e-11 0
-10.024797 -2.6634654e-13 0
-10.024797 -5.4251569e-11 0
-10.024797 5.0907227e-15 0
-10.024797 -5.7254677e-13 0
-10.024797 -5.4131922e-11 0
-10.024797 -5.5869245e-10 0
-10.024797 -4.3407804e-08 0
-10.024797 5.5988415e-10 0
-10.024797 1.1351554e-12 0
-10.024797 1.1436045e-12 0
-10.024797 -3.6647783e-15 0
-10.024797 -1.8703376e-17 0
-10.024797 1.8773815e-16 0
-10.024797 -1.4476503e-12 0
-10.024797 -4.3573555e-10 0
-10.024797 2.9952415e-06 0
-10.024805 0.001149616 0
-9.6639831 -2.4902841 0
-9.8960578 -1.4669863 0
-3.6116826 -9.3983769 0
7.7693474 2.153538 0
10.023576 0.010095413 0
10.023642 1.0499995e-05 0
10.023642 -1.6177698e-06 0
10.023642 4.9267086e-11 0
10.023642 -1.9252511e-13 0
10.023642 3.8308319e-11 0
10.023642 3.6000745e-15 0
10.023642 -3.8177083e-13 0
10.023642 3.770637e-11 0
10.023642 2.5728707e-10 0
10.023642 2.56e-08 0
10.023642 -2.5815033e-10 0
10.023642 7.5850229e-13 0
10.023642 7.594666e-13 0
10.023642 -3.5457151e-15 0
10.023642 -1.7574568e-17 0
10.023642 1.3765113e-16 0
10.023642 -9.1852617e-13 0
10.023642 4.843665e-10 0
10.023642 -1.1037681e-05 0
10.023576 -0.010103451 0
7.7693493 -2.1535349 0
-3.6116826 9.3983768 0
0.63703166 -5.027887 0
-5.1299152 12.956828 0
-10.025897 -0.01130957 0
-10.025903 -1.3489921e-05 0
-10.025903 1.5011847e-06 0
-10.025903 -3.3683672e-11 0
-10.025903 -1.5070429e-13 0
-10.025903 -3.2138962e-11 0
-10.025903 3.6038843e-15 0
-10.025903 -3.7227817e-13 0
-10.025903 -3.1894959e-11 0
-10.025903 -2.1204208e-10 0
-10.025903 -2.2753093e-08 0
-10.025903 2.1228952e-10 0
-10.025903 7.3821569e-13 0
-10.025903 7.4088855e-13 0
-10.025903 -3.4151414e-15 0
-10.025903 -1.6479098e-17 0
-10.025903 1.2382093e-16 0
-10.025903 -6.9580202e-13 0
-10.025903 -5.4686419e-10 0
-10.025903 1.4041543e-05 0
-10.025897 0.011317827 0
-5.1299189 -12.95683 0
0.63703368 5.0278856 0
6.5871699 -8.1598474 0
-9.0894534 -4.2573094 0
10.022789 0.0066122539 0
10.022805 8.3051202e-06 0
10.022804 -4.7584302e-07 0
10.022804 7.1938972e-12 0
10.022804 -1.1232745e-13 0
10.022804 -3.3000728e-13 0
10.022804 3.6941083e-15 0
10.022804 -2.2235853e-13 0
10.022804 -3.2834228e-13 0
10.022804 7.2975193e-12 0
10.022804 3.8330002e-09 0
10.022804 -7.3759999e-12 0
10.022804 4.3842512e-13 0
10.022804 4.4165235e-13 0
10.022804 -3.2855234e-15 0
10.022804 -1.5338995e-17 0
10.022804 1.2420657e-16 0
10.022804 -5.0813096e-13 0
10.022804 -4.7899866e-11 0
10.022805 -8.7513776e-06 0
10.022789 -0.0066183422 0