# vtk DataFile Version 4.0
hesp visualization file
ASCII
DATASET UNSTRUCTURED_GRID
POINTS 1250 double
30.47906 1.1372369 4
30.477562 2.245278 4
30.477561 3.367386 4
30.477561 4.4898482 4
30.477561 5.6123102 4
30.477561 6.7347723 4
30.477561 7.8572343 4
30.477561 8.9796964 4
30.477561 10.102158 4
30.477561 11.22462 4
30.477561 12.347083 4
30.477561 13.469545 4
30.477561 14.592007 4
30.477561 15.714469 4
30.477561 16.836931 4
30.477561 17.959393 4
30.477561 19.081855 4
30.477561 20.204317 4
30.477561 21.326779 4
30.477561 22.449241 4
30.477561 23.571703 4
30.477561 24.694165 4
30.477561 25.816627 4
30.477562 26.938735 4
30.47906 28.046776 4
30.847759 1.0976983 4
30.84912 2.2442979 4
30.849121 3.3673863 4
30.849121 4.4898482 4
30.849121 5.6123102 4
30.849121 6.7347723 4
30.849121 7.8572343 4
30.849121 8.9796964 4
30.849121 10.102158 4
30.849121 11.22462 4
30.849121 12.347083 4
30.849121 13.469545 4
30.849121 14.592007 4
30.849121 15.714469 4
30.849121 16.836931 4
30.849121 17.959393 4
30.849121 19.081855 4
30.849121 20.204317 4
30.849121 21.326779 4
30.849121 22.449241 4
30.849121 23.571703 4
30.849121 24.694165 4
30.849121 25.816627 4
30.84912 26.939715 4
30.847759 28.086315 4
31.805449 1.1461705 4
31.804231 2.2455125 4
31.80423 3.367386 4
31.80423 4.4898482 4
31.80423 5.6123102 4
31.80423 6.7347723 4
31.80423 7.8572343 4
31.80423 8.9796964 4
31.80423 10.102158 4
31.80423 11.22462 4
31.80423 12.347083 4
31.80423 13.469545 4
31.80423 14.592007 4
31.80423 15.714469 4
31.80423 16.836931 4
31.80423 17.959393 4
31.80423 19.081855 4
31.80423 20.204317 4
31.80423 21.326779 4
31.80423 22.449241 4
31.80423 23.571703 4
31.80423 24.694165 4
31.80423 25.816627 4
31.804231 26.938501 4
31.805449 28.037843 4
32.17438 1.1087149 4
32.175743 2.2445631 4
32.175744 3.3673862 4
32.175744 4.4898482 4
32.175744 5.6123102 4
32.175744 6.7347723 4
32.175744 7.8572343 4
32.175744 8.9796964 4
32.175744 10.102158 4
32.175744 11.22462 4
32.175744 12.347083 4
32.175744 13.469545 4
32.175744 14.592007 4
32.175744 15.714469 4
32.175744 16.836931 4
32.175744 17.959393 4
32.175744 19.081855 4
32.175744 20.204317 4
32.175744 21.326779 4
32.175744 22.449241 4
32.175744 23.571703 4
32.175744 24.694165 4
32.175744 25.816627 4
32.175743 26.93945 4
32.17438 28.075298 4
33.130877 1.1271346 4
33.130847 2.2450349 4
33.130847 3.3673861 4
33.130847 4.4898482 4
33.130847 5.6123102 4
33.130847 6.7347723 4
33.130847 7.8572343 4
33.130847 8.9796964 4
33.130847 10.102158 4
33.130847 11.22462 4
33.130847 12.347083 4
33.130847 13.469545 4
33.130847 14.592007 4
33.130847 15.714469 4
33.130847 16.836931 4
33.130847 17.959393 4
33.130847 19.081855 4
33.130847 20.204317 4
33.130847 21.326779 4
33.130847 22.449241 4
33.130847 23.571703 4
33.130847 24.694165 4
33.130847 25.816627 4
33.130847 26.938978 4
33.130877 28.056879 4
33.501964 1.1213107 4
33.501996 2.2448844 4
33.501996 3.3673861 4
33.501996 4.4898482 4
33.501996 5.6123102 4
33.501996 6.7347723 4
33.501996 7.8572343 4
33.501996 8.9796964 4
33.501996 10.102158 4
33.501996 11.22462 4
33.501996 12.347083 4
33.501996 13.469545 4
33.501996 14.592007 4
33.501996 15.714469 4
33.501996 16.836931 4
33.501996 17.959393 4
33.501996 19.081855 4
33.501996 20.204317 4
33.501996 21.326779 4
33.501996 22.449241 4
33.501996 23.571703 4
33.501996 24.694165 4
33.501996 25.816627 4
33.501996 26.939129 4
33.501964 28.062703 4
34.457234 1.1229723 4
34.457233 2.2449274 4
34.457233 3.3673861 4
34.457233 4.4898482 4
34.457233 5.6123102 4
34.457233 6.7347723 4
34.457233 7.8572343 4
34.457233 8.9796964 4
34.457233 10.102158 4
34.457233 11.22462 4
34.457233 12.347083 4
34.457233 13.469545 4
34.457233 14.592007 4
34.457233 15.714469 4
34.457233 16.836931 4
34.457233 17.959393 4
34.457233 19.081855 4
34.457233 20.204317 4
34.457233 21.326779 4
34.457233 22.449241 4
34.457233 23.571703 4
34.457233 24.694165 4
34.457233 25.816627 4
34.457233 26.939086 4
34.457234 28.061041 4
35.579696 1.1229723 4
35.579696 2.2449274 4
35.579696 3.3673861 4
35.579696 4.4898482 4
35.579696 5.6123102 4
35.579696 6.7347723 4
35.579696 7.8572343 4
35.579696 8.9796964 4
35.579696 10.102158 4
35.579696 11.22462 4
35.579696 12.347083 4
35.579696 13.469545 4
35.579696 14.592007 4
35.579696 15.714469 4
35.579696 16.836931 4
35.579696 17.959393 4
35.579696 19.081855 4
35.579696 20.204317 4
35.579696 21.326779 4
35.579696 22.449241 4
35.579696 23.571703 4
35.579696 24.694165 4
35.579696 25.816627 4
35.579696 26.939086 4
35.579696 28.061041 4
36.702158 1.1229723 4
36.702158 2.2449274 4
36.702158 3.3673861 4
36.702158 4.4898482 4
36.702158 5.6123102 4
36.702158 6.7347723 4
36.702158 7.8572343 4
36.702158 8.9796964 4
36.702158 10.102158 4
36.702158 11.22462 4
36.702158 12.347083 4
36.702158 13.469545 4
36.702158 14.592007 4
36.702158 15.714469 4
36.702158 16.836931 4
36.702158 17.959393 4
36.702158 19.081855 4
36.702158 20.204317 4
36.702158 21.326779 4
36.702158 22.449241 4
36.702158 23.571703 4
36.702158 24.694165 4
36.702158 25.816627 4
36.702158 26.939086 4
36.702158 28.061041 4
37.82462 1.1229723 4
37.82462 2.2449274 4
37.82462 3.3673861 4
37.82462 4.4898482 4
37.82462 5.6123102 4
37.82462 6.7347723 4
37.82462 7.8572343 4
37.82462 8.9796964 4
37.82462 10.102158 4
37.82462 11.22462 4
37.82462 12.347083 4
37.82462 13.469545 4
37.82462 14.592007 4
37.82462 15.714469 4
37.82462 16.836931 4
37.82462 17.959393 4
37.82462 19.081855 4
37.82462 20.204317 4
37.82462 21.326779 4
37.82462 22.449241 4
37.82462 23.571703 4
37.82462 24.694165 4
37.82462 25.816627 4
37.82462 26.939086 4
37.82462 28.061041 4
38.947083 1.1229723 4
38.947083 2.2449274 4
38.947083 3.3673861 4
38.947083 4.4898482 4
38.947083 5.6123102 4
38.947083 6.7347723 4
38.947083 7.8572343 4
38.947083 8.9796964 4
38.947083 10.102158 4
38.947083 11.22462 4
38.947083 12.347083 4
38.947083 13.469545 4
38.947083 14.592007 4
38.947083 15.714469 4
38.947083 16.836931 4
38.947083 17.959393 4
38.947083 19.081855 4
38.947083 20.204317 4
38.947083 21.326779 4
38.947083 22.449241 4
38.947083 23.571703 4
38.947083 24.694165 4
38.947083 25.816627 4
38.947083 26.939086 4
38.947083 28.061041 4
40.069545 1.1229723 4
40.069545 2.2449274 4
40.069545 3.3673861 4
40.069545 4.4898482 4
40.069545 5.6123102 4
40.069545 6.7347723 4
40.069545 7.8572343 4
40.069545 8.9796964 4
40.069545 10.102158 4
40.069545 11.22462 4
40.069545 12.347083 4
40.069545 13.469545 4
40.069545 14.592007 4
40.069545 15.714469 4
40.069545 16.836931 4
40.069545 17.959393 4
40.069545 19.081855 4
40.069545 20.204317 4
40.069545 21.326779 4
40.069545 22.449241 4
40.069545 23.571703 4
40.069545 24.694165 4
40.069545 25.816627 4
40.069545 26.939086 4
40.069545 28.061041 4
41.192007 1.1229723 4
41.192007 2.2449274 4
41.192007 3.3673861 4
41.192007 4.4898482 4
41.192007 5.6123102 4
41.192007 6.7347723 4
41.192007 7.8572343 4
41.192007 8.9796964 4
41.192007 10.102158 4
41.192007 11.22462 4
41.192007 12.347083 4
41.192007 13.469545 4
41.192007 14.592007 4
41.192007 15.714469 4
41.192007 16.836931 4
41.192007 17.959393 4
41.192007 19.081855 4
41.192007 20.204317 4
41.192007 21.326779 4
41.192007 22.449241 4
41.192007 23.571703 4
41.192007 24.694165 4
41.192007 25.816627 4
41.192007 26.939086 4
41.192007 28.061041 4
42.314469 1.1229723 4
42.314469 2.2449274 4
42.314469 3.3673861 4
42.314469 4.4898482 4
42.314469 5.6123102 4
42.314469 6.7347723 4
42.314469 7.8572343 4
42.314469 8.9796964 4
42.314469 10.102158 4
42.314469 11.22462 4
42.314469 12.347083 4
42.314469 13.469545 4
42.314469 14.592007 4
42.314469 15.714469 4
42.314469 16.836931 4
42.314469 17.959393 4
42.314469 19.081855 4
42.314469 20.204317 4
42.314469 21.326779 4
42.314469 22.449241 4
42.314469 23.571703 4
42.314469 24.694165 4
42.314469 25.816627 4
42.314469 26.939086 4
42.314469 28.061041 4
43.436931 1.1229723 4
43.436931 2.2449274 4
43.436931 3.3673861 4
43.436931 4.4898482 4
43.436931 5.6123102 4
43.436931 6.7347723 4
43.436931 7.8572343 4
43.436931 8.9796964 4
43.436931 10.102158 4
43.436931 11.22462 4
43.436931 12.347083 4
43.436931 13.469545 4
43.436931 14.592007 4
43.436931 15.714469 4
43.436931 16.836931 4
43.436931 17.959393 4
43.436931 19.081855 4
43.436931 20.204317 4
43.436931 21.326779 4
43.436931 22.449241 4
43.436931 23.571703 4
43.436931 24.694165 4
43.436931 25.816627 4
43.436931 26.939086 4
43.436931 28.061041 4
44.559393 1.1229723 4
44.559393 2.2449274 4
44.559393 3.3673861 4
44.559393 4.4898482 4
44.559393 5.6123102 4
44.559393 6.7347723 4
44.559393 7.8572343 4
44.559393 8.9796964 4
44.559393 10.102158 4
44.559393 11.22462 4
44.559393 12.347083 4
44.559393 13.469545 4
44.559393 14.592007 4
44.559393 15.714469 4
44.559393 16.836931 4
44.559393 17.959393 4
44.559393 19.081855 4
44.559393 20.204317 4
44.559393 21.326779 4
44.559393 22.449241 4
44.559393 23.571703 4
44.559393 24.694165 4
44.559393 25.816627 4
44.559393 26.939086 4
44.559393 28.061041 4
45.681855 1.1229723 4
45.681855 2.2449274 4
45.681855 3.3673861 4
45.681855 4.4898482 4
45.681855 5.6123102 4
45.681855 6.7347723 4
45.681855 7.8572343 4
45.681855 8.9796964 4
45.681855 10.102158 4
45.681855 11.22462 4
45.681855 12.347083 4
45.681855 13.469545 4
45.681855 14.592007 4
45.681855 15.714469 4
45.681855 16.836931 4
45.681855 17.959393 4
45.681855 19.081855 4
45.681855 20.204317 4
45.681855 21.326779 4
45.681855 22.449241 4
45.681855 23.571703 4
45.681855 24.694165 4
45.681855 25.816627 4
45.681855 26.939086 4
45.681855 28.061041 4
46.804317 1.1229723 4
46.804317 2.2449274 4
46.804317 3.3673861 4
46.804317 4.4898482 4
46.804317 5.6123102 4
46.804317 6.7347723 4
46.804317 7.8572343 4
46.804317 8.9796964 4
46.804317 10.102158 4
46.804317 11.22462 4
46.804317 12.347083 4
46.804317 13.469545 4
46.804317 14.592007 4
46.804317 15.714469 4
46.804317 16.836931 4
46.804317 17.959393 4
46.804317 19.081855 4
46.804317 20.204317 4
46.804317 21.326779 4
46.804317 22.449241 4
46.804317 23.571703 4
46.804317 24.694165 4
46.804317 25.816627 4
46.804317 26.939086 4
46.804317 28.061041 4
47.926779 1.1229723 4
47.926779 2.2449274 4
47.926779 3.3673861 4
[...]
POINT_DATA 1250
SCALARS m double
LOOKUP_TABLE default
1
1
1
1
1
1
1
1
1
1
1
1
1
1
1
1
1
1
1
1
1
1
1
1
1
1
1
1
1
1
1
1
1
1
1
1
1
1
1
1
1
1
1
1
1
1
1
1
1
1
1
1
1
1
1
1
1
1
1
1
1
1
1
1
1
1
1
1
1
1
1
1
1
1
1
1
1
1
1
1
1
1
1
1
1
1
1
1
1
1
1
1
1
1
1
1
1
1
1
1
1
1
1
1
1
1
1
1
1
1
1
1
1
1
1
1
1
1
1
1
1
1
1
1
1
1
1
1
1
1
1
1
1
1
1
1
1
1
1
1
1
1
1
1
1
1
1
1
1
1
1
1
1
1
1
1
1
1
1
1
1
1
1
1
1
1
1
1
1
1
1
1
1
1
1
1
1
1
1
1
1
1
1
1
1
1
1
1
1
1
1
1
1
1
1
1
1
1
1
1
1
1
1
1
1
1
1
1
1
1
1
1
1
1
1
1
1
1
1
1
1
1
1
1
1
1
1
1
1
1
1
1
1
1
1
1
1
1
1
1
1
1
1
1
1
1
1
1
1
1
1
1
1
1
1
1
1
1
1
1
1
1
1
1
1
1
1
1
1
1
1
1
1
1
1
1
1
1
1
1
1
1
1
1
1
1
1
1
1
1
1
1
1
1
1
1
1
1
1
1
1
1
1
1
1
1
1
1
1
1
1
1
1
1
1
1
1
1
1
1
1
1
1
1
1
1
1
1
1
1
1
1
1
1
1
1
1
1
1
1
1
1
1
1
1
1
1
1
1
1
1
1
1
1
1
1
1
1
1
1
1
1
1
1
1
1
1
1
1
1
1
1
1
1
1
1
1
1
1
1
1
1
1
1
1
1
1
1
1
1
1
1
1
1
1
1
1
1
1
1
1
1
1
1
1
1
1
1
1
1
1
1
1
1
1
1
1
1
1
1
1
1
1
1
1
1
1
1
1
1
1
1
1
1
1
1
1
1
1
1
1
1
1
1
1
1
1
1
1
1
1
1
1
1
1
1
1
1
1
1
1
1
1
1
1
1
1
1
1
1
1
1
1
1
1
1
1
1
1
1
1
1
1
1
1
1
1
1
1
1
1
1
1
1
1
1
1
1
1
1
1
1
1
1
1
1
1
1
1
1
1
1
1
1
1
1
1
1
1
1
1
1
1
1
1
1
1
1
1
1
1
1
1
1
1
1
1
1
1
1
1
1
1
1
1
1
1
1
1
1
1
1
1
1
1
1
1
1
1
1
1
1
1
1
1
1
1
1
1
1
1
1
1
1
1
1
1
1
1
1
1
1
1
1
1
1
1
1
1
1
1
1
1
1
1
1
1
1
1
1
1
1
1
1
1
1
1
1
1
1
1
1
1
1
1
1
1
1
1
1
1
1
1
1
1
1
1
1
1
1
1
1
1
1
1
1
1
1
1
1
1
1
1
1
1
1
1
1
1
1
1
1
1
1
1
1
1
1
1
1
1
1
1
1
1
1
1
1
1
1
1
1
1
1
1
1
1
1
1
1
1
1
1
1
1
1
1
1
1
1
1
1
1
1
1
1
1
1
1
1
1
1
1
1
1
1
1
1
1
1
1
1
1
1
1
1
1
1
1
1
1
1
1
1
1
1
1
1
1
1
1
1
1
1
1
1
1
1
1
1
1
1
1
1
1
1
1
1
1
1
1
1
1
1
1
1
1
1
1
1
1
1
1
1
1
1
1
1
1
1
1
1
1
1
1
1
1
1
1
1
1
1
1
1
1
1
1
1
1
1
1
1
1
1
1
1
1
1
1
1
1
1
1
1
1
1
1
1
1
1
1
1
1
1
1
1
1
1
1
1
1
1
1
1
1
1
1
1
1
1
1
1
1
1
1
1
1
1
1
1
1
1
1
1
1
1
1
1
1
1
1
1
1
1
1
1
1
1
1
1
1
1
1
1
1
1
1
1
1
1
1
1
1
1
1
1
1
1
1
1
1
1
1
1
1
1
1
1
1
1
1
1
1
1
1
1
1
1
1
1
1
1
1
1
1
1
1
1
1
1
1
1
1
1
1
1
1
1
1
1
1
1
1
1
1
1
1
1
1
1
1
1
1
1
1
1
1
1
1
1
1
1
1
1
1
1
1
1
1
1
1
1
1
1
1
1
1
1
1
1
1
1
1
1
1
1
1
1
1
1
1
1
1
1
1
1
1
1
1
1
1
1
1
1
1
1
1
1
1
1
1
1
1
1
1
1
1
1
1
1
1
1
1
1
1
1
1
1
1
1
1
1
1
1
1
1
1
1
1
1
1
1
1
1
1
1
1
1
1
1
1
1
1
1
1
1
1
1
1
1
1
1
1
1
1
1
1
1
1
1
1
1
1
1
1
1
1
1
1
1
1
1
1
1
1
1
1
1
1
1
1
1
1
1
1
1
1
1
1
1
1
1
1
1
1
1
1
1
1
1
1
1
1
1
1
1
1
1
1
1
1
1
1
1
1
1
1
1
1
1
1
1
1
1
1
1
1
1
1
1
1
1
1
1
1
1
1
1
1
1
1
1
1
1
1
1
1
1
1
1
1
1
1
1
1
1
1
1
1
1
1
1
1
1
1
1
1
1
1
1
1
1
1
1
1
1
1
1
1
1
1
1
1
1
1
1
1
1
1
1
1
1
1
1
1
1
1
1
1
1
1
1
1
1
1
1
1
1
1
1
1
1
1
1
1
1
1
1
1
1
1
1
1
1
1
1
1
1
1
1
1
1
1
1
1
1
1
1
1
1
1
1
1
1
1
1
1
1
1
1
1
1
1
1
1
1
1
1
1
1
VECTORS v double
-9.9245791 1.4312677 0
-10.042975 0.03536933 0
-10.043047 -9.4130905e-06 0
-10.043047 -2.8615053e-08 0
-10.043047 -1.9553201e-09 0
-10.043047 2.4378686e-13 0
-10.043047 -1.1401106e-13 0
-10.043047 -4.5725327e-13 0
-10.043047 2.8433302e-15 0
-10.043047 -2.3047604e-13 0
-10.043047 -4.5608905e-13 0
-10.043047 -6.8203137e-13 0
-10.043047 3.8282983e-11 0
-10.043047 6.8365086e-13 0
-10.043047 4.5609957e-13 0
-10.043047 4.5858446e-13 0
-10.043047 -2.5299973e-15 0
-10.043047 -1.2537638e-17 0
-10.043047 9.6269951e-17 0
-10.043047 -4.5412228e-13 0
-10.043047 -7.5565292e-13 0
-10.043047 2.867278e-08 0
-10.043047 9.4212002e-06 0
-10.042975 -0.035369322 0
-9.9245791 -1.4312677 0
9.9278755 -1.6279025 0
10.043825 -0.040422458 0
10.043899 1.0917154e-05 0
10.043899 7.4076091e-09 0
10.043899 1.7831404e-09 0
10.043899 1.3424222e-13 0
10.043899 -6.6471289e-14 0
10.043899 -2.6717979e-13 0
10.043899 2.707299e-15 0
10.043899 -1.3534989e-13 0
10.043899 -2.6607251e-13 0
10.043899 -3.9701329e-13 0
10.043899 -3.1931072e-11 0
10.043899 3.9872787e-13 0
10.043899 2.6607879e-13 0
10.043899 2.6844608e-13 0
10.043899 -2.4092285e-15 0
10.043899 -1.1569863e-17 0
10.043899 9.1714154e-17 0
10.043899 -2.6368609e-13 0
10.043899 -1.155837e-14 0
10.043899 -7.4862321e-09 0
10.043899 -1.0926385e-05 0
10.043825 0.040422449 0
9.9278755 1.6279025 0
-9.9371246 1.5381619 0
-10.041866 0.038843409 0
-10.041931 -8.8477151e-06 0
-10.041931 -2.5011721e-08 0
-10.041931 -3.8249552e-10 0
-10.041931 1.7402333e-13 0
-10.041931 -8.5008496e-14 0
-10.041931 -3.4108852e-13 0
-10.041931 2.5613073e-15 0
-10.041931 -1.7220734e-13 0
-10.041931 -3.4003821e-13 0
-10.041931 -5.0786793e-13 0
-10.041931 -6.8219677e-13 0
-10.041931 5.0990526e-13 0
-10.041931 3.4004679e-13 0
-10.041931 3.4228395e-13 0
-10.041931 -2.2805883e-15 0
-10.041931 -1.0421899e-17 0
-10.041931 8.794527e-17 0
-10.041931 -3.3829562e-13 0
-10.041931 -7.4184704e-13 0
-10.041931 2.5171927e-08 0
-10.041931 8.8565845e-06 0
-10.041866 -0.0388434 0
-9.9371246 -1.5381619 0
9.9370697 -1.3712627 0
10.044185 -0.034848677 0
10.044254 7.3705063e-06 0
10.044254 2.0421172e-08 0
10.044254 3.1350969e-10 0
10.044254 2.0964075e-13 0
10.044254 -1.0318079e-13 0
10.044254 -4.137914e-13 0
10.044254 2.4144911e-15 0
10.044254 -2.084638e-13 0
10.044254 -4.1280136e-13 0
10.044254 -6.1713567e-13 0
10.044254 -8.275986e-13 0
10.044254 6.1905965e-13 0
10.044254 4.1280905e-13 0
10.044254 4.1491814e-13 0
10.044254 -2.1499999e-15 0
10.044254 -9.2779303e-18 0
10.044254 8.2174713e-17 0
10.044254 -4.1174902e-13 0
10.044254 -7.3518148e-13 0
10.044254 -2.057339e-08 0
10.044254 -7.3784888e-06 0
10.044185 0.034848669 0
9.9370697 1.3712627 0
-10.038374 0.25329201 0
-10.040953 0.0064818919 0
-10.040955 -1.1058183e-06 0
-10.040955 -2.3023533e-09 0
-10.040955 2.4280091e-13 0
-10.040955 4.487179e-14 0
-10.040955 -2.2381602e-14 0
-10.040955 -9.0471461e-14 0
-10.040955 2.267926e-15 0
-10.040955 -4.6707675e-14 0
-10.040955 -8.9540903e-14 0
-10.040955 -1.3237008e-13 0
-10.040955 -1.8095651e-13 0
-10.040955 1.3417801e-13 0
-10.040955 8.9547775e-14 0
-10.040955 9.1528251e-14 0
-10.040955 -2.0204051e-15 0
-10.040955 -8.1281208e-18 0
-10.040955 7.7508136e-17 0
-10.040955 -8.7727373e-14 0
-10.040955 -1.9980996e-13 0
-10.040955 2.3472783e-09 0
-10.040955 1.1073296e-06 0
-10.040953 -0.0064818905 0
-10.038374 -0.25329201 0
10.040319 -0.20083952 0
10.042944 -0.005254598 0
10.042946 7.4972226e-07 0
10.042946 1.4202727e-09 0
10.042946 2.0985322e-13 0
10.042946 2.4390308e-14 0
10.042946 -1.2092177e-14 0
10.042946 -4.9259858e-14 0
10.042946 2.1242481e-15 0
10.042946 -2.6006748e-14 0
10.042946 -4.8387182e-14 0
10.042946 -7.0763421e-14 0
10.042946 -9.8530967e-14 0
10.042946 7.2457782e-14 0
10.042946 4.839316e-14 0
10.042946 5.0247489e-14 0
10.042946 -1.8928982e-15 0
10.042946 -6.9971243e-18 0
10.042946 7.3270668e-17 0
10.042946 -4.6811964e-14 0
10.042946 -1.8732278e-13 0
10.042946 -1.4570778e-09 0
10.042946 -7.5095536e-07 0
10.042944 0.0052545968 0
10.040319 0.20083952 0
-10.000107 0.0030097414 0
-10.000115 1.7980008e-05 0
-10.000116 -3.0485215e-08 0
-10.000116 -5.2032267e-11 0
-10.000116 5.4620765e-14 0
-10.000116 6.3983219e-17 0
-10.000116 -2.5875823e-18 0
-10.000116 -8.5840757e-16 0
-10.000116 2.0184033e-15 0
-10.000116 -1.7373752e-15 0
-10.000116 -2.9149367e-17 0
-10.000116 1.682965e-15 0
-10.000116 -1.727379e-15 0
-10.000116 -7.2619125e-17 0
-10.000116 3.4839103e-17 0
-10.000116 1.7963767e-15 0
-10.000116 -1.798889e-15 0
-10.000116 -6.2603852e-18 0
-10.000116 6.9705972e-17 0
-10.000116 1.6031907e-15 0
-10.000116 -5.5847991e-14 0
-10.000116 5.2031746e-11 0
-10.000116 3.0485214e-08 0
-10.000115 -1.7980008e-05 0
-10.000107 -0.0030097414 0
-10.000001 0.0030028723 0
-10.000001 1.7780994e-05 0
-10.000001 -3.0533546e-08 0
-10.000001 -6.3406932e-11 0
-10.000001 5.4728368e-14 0
-10.000001 6.3601838e-17 0
-10.000001 -2.5593292e-18 0
-10.000001 -8.5756486e-16 0
-10.000001 2.0165862e-15 0
-10.000001 -1.7358346e-15 0
-10.000001 -2.8963191e-17 0
-10.000001 1.6816429e-15 0
-10.000001 -1.7257359e-15 0
-10.000001 -7.2682518e-17 0
-10.000001 3.4495023e-17 0
-10.000001 1.7947007e-15 0
-10.000001 -1.7972383e-15 0
-10.000001 -6.2035847e-18 0
-10.000001 6.9532175e-17 0
-10.000001 1.6020336e-15 0
-10.000001 -5.595626e-14 0
-10.000001 6.3406449e-11 0
-10.000001 3.0533546e-08 0
-10.000001 -1.7780994e-05 0
-10.000001 -0.0030028723 0
-10 0.0030027358 0
-10 1.778095e-05 0
-10 -3.0535389e-08 0
-10 -6.3407133e-11 0
-10 5.4728796e-14 0
-10 6.3565626e-17 0
-10 -2.5034914e-18 0
-10 -8.5776151e-16 0
-10 2.0164859e-15 0
-10 -1.7356866e-15 0
-10 -2.9063696e-17 0
-10 1.6813644e-15 0
-10 -1.7255331e-15 0
-10 -7.2689011e-17 0
-10 3.4480052e-17 0
-10 1.7946864e-15 0
-10 -1.7971259e-15 0
-10 -6.2046937e-18 0
-10 6.9485692e-17 0
-10 1.6020433e-15 0
-10 -5.5956605e-14 0
-10 6.3406649e-11 0
-10 3.0535389e-08 0
-10 -1.778095e-05 0
-10 -0.0030027358 0
-10 0.0030027358 0
-10 1.778095e-05 0
-10 -3.0535389e-08 0
-10 -6.3407132e-11 0
-10 5.4728622e-14 0
-10 6.3566038e-17 0
-10 -2.5675476e-18 0
-10 -8.5797905e-16 0
-10 2.0165782e-15 0
-10 -1.7354195e-15 0
-10 -2.9079035e-17 0
-10 1.6813477e-15 0
-10 -1.7255266e-15 0
-10 -7.2604198e-17 0
-10 3.4469026e-17 0
-10 1.7947266e-15 0
-10 -1.7971582e-15 0
-10 -6.2031211e-18 0
-10 6.9440523e-17 0
-10 1.6020944e-15 0
-10 -5.595645e-14 0
-10 6.3406649e-11 0
-10 3.0535389e-08 0
-10 -1.778095e-05 0
-10 -0.0030027358 0
-10 0.0030027358 0
-10 1.778095e-05 0
-10 -3.0535389e-08 0
-10 -6.3407132e-11 0
-10 5.4728644e-14 0
-10 6.364388e-17 0
-10 -2.5524517e-18 0
-10 -8.5755432e-16 0
-10 2.0164025e-15 0
-10 -1.7359125e-15 0
-10 -2.9216188e-17 0
-10 1.6814306e-15 0
-10 -1.7256338e-15 0
-10 -7.2675243e-17 0
-10 3.4666649e-17 0
-10 1.7947193e-15 0
-10 -1.7971666e-15 0
-10 -6.2115353e-18 0
-10 6.9476965e-17 0
-10 1.6020644e-15 0
-10 -5.5956576e-14 0
-10 6.3406648e-11 0
-10 3.0535389e-08 0
-10 -1.778095e-05 0
-10 -0.0030027358 0
-10 0.0030027358 0
-10 1.778095e-05 0
-10 -3.0535389e-08 0
-10 -6.3407132e-11 0
-10 5.4728738e-14 0
-10 6.3643689e-17 0
-10 -2.5069609e-18 0
-10 -8.5776932e-16 0
-10 2.0164764e-15 0
-10 -1.7357118e-15 0
-10 -2.910186e-17 0
-10 1.6813098e-15 0
-10 -1.7254498e-15 0
-10 -7.2653449e-17 0
-10 3.4790567e-17 0
-10 1.7947142e-15 0
-10 -1.7970999e-15 0
-10 -6.2046937e-18 0
-10 6.9454467e-17 0
-10 1.6020528e-15 0
-10 -5.5956612e-14 0
-10 6.3406649e-11 0
-10 3.0535389e-08 0
-10 -1.778095e-05 0
-10 -0.0030027358 0
-10 0.0030027358 0
-10 1.778095e-05 0
-10 -3.0535389e-08 0
-10 -6.3407132e-11 0
-10 5.4728696e-14 0
-10 6.3559099e-17 0
-10 -2.5675476e-18 0
-10 -8.5797905e-16 0
-10 2.0165782e-15 0
-10 -1.7354195e-15 0
-10 -2.9079035e-17 0
-10 1.6813477e-15 0
-10 -1.7256637e-15 0
-10 -7.2604198e-17 0
-10 3.4469026e-17 0
-10 1.7947266e-15 0
-10 -1.7971582e-15 0
-10 -6.2031211e-18 0
-10 6.9440523e-17 0
-10 1.602094e-15 0
-10 -5.5956861e-14 0
-10 6.340665e-11 0
-10 3.0535389e-08 0
-10 -1.778095e-05 0
-10 -0.0030027358 0
-10 0.0030027358 0
-10 1.778095e-05 0
-10 -3.0535389e-08 0
-10 -6.3407132e-11 0
-10 5.472877e-14 0
-10 6.3564304e-17 0
-10 -2.5675476e-18 0
-10 -8.5753669e-16 0
-10 2.0165782e-15 0
-10 -1.7358618e-15 0
-10 -2.9079035e-17 0
-10 1.6814951e-15 0
-10 -1.7256637e-15 0
-10 -7.2604198e-17 0
-10 3.4469026e-17 0
-10 1.7947266e-15 0
-10 -1.7971582e-15 0
-10 -6.2031211e-18 0
-10 6.9440523e-17 0
-10 1.6020943e-15 0
-10 -5.5956705e-14 0
-10 6.3406649e-11 0
-10 3.0535389e-08 0
-10 -1.778095e-05 0
-10 -0.0030027358 0
-10 0.0030027358 0
-10 1.778095e-05 0
-10 -3.0535389e-08 0
-10 -6.3407132e-11 0
-10 5.4728773e-14 0
-10 6.3649084e-17 0
-10 -2.5524517e-18 0
-10 -8.5755432e-16 0
-10 2.0164025e-15 0
-10 -1.7359125e-15 0
-10 -2.9216188e-17 0
-10 1.6814306e-15 0
-10 -1.7257812e-15 0
-10 -7.2675243e-17 0
-10 3.4666649e-17 0
-10 1.7947193e-15 0
-10 -1.7971666e-15 0
-10 -6.2115353e-18 0
-10 6.9476965e-17 0
-10 1.6020644e-15 0
-10 -5.5956638e-14 0
-10 6.3406649e-11 0
-10 3.0535389e-08 0
-10 -1.778095e-05 0
-10 -0.0030027358 0
-10 0.0030027358 0
-10 1.778095e-05 0
-10 -3.0535389e-08 0
-10 -6.3407132e-11 0
-10 5.4728705e-14 0
-10 6.3632413e-17 0
-10 -2.5069609e-18 0
-10 -8.5776932e-16 0
-10 2.0164764e-15 0
-10 -1.7357118e-15 0
-10 -2.910186e-17 0
-10 1.6813098e-15 0
-10 -1.7254498e-15 0
-10 -7.2653449e-17 0
-10 3.4790567e-17 0
-10 1.7947142e-15 0
-10 -1.7970999e-15 0
-10 -6.2046937e-18 0
-10 6.9454467e-17 0
-10 1.6020529e-15 0
-10 -5.5956743e-14 0
-10 6.340665e-11 0
-10 3.0535389e-08 0
-10 -1.778095e-05 0
-10 -0.0030027358 0
-10 0.0030027358 0
-10 1.778095e-05 0
-10 -3.0535389e-08 0
-10 -6.3407132e-11 0
-10 5.4728613e-14 0
-10 6.3566038e-17 0
-10 -2.5675476e-18 0
-10 -8.5797905e-16 0
-10 2.0165782e-15 0
-10 -1.7354195e-15 0
-10 -2.9079035e-17 0
-10 1.6813477e-15 0
-10 -1.7256637e-15 0
-10 -7.2604198e-17 0
-10 3.4469026e-17 0
-10 1.7947266e-15 0
-10 -1.7971582e-15 0
-10 -6.2031211e-18 0
-10 6.9440523e-17 0
-10 1.6020944e-15 0
-10 -5.59565e-14 0
-10 6.3406649e-11 0
-10 3.0535389e-08 0
-10 -1.778095e-05 0
-10 -0.0030027358 0
-10 0.0030027358 0
-10 1.778095e-05 0
-10 -3.0535389e-08 0
-10 -6.3407132e-11 0
-10 5.472871e-14 0
-10 6.3574712e-17 0
-10 -2.5675476e-18 0
-10 -8.5753669e-16 0
-10 2.0165782e-15 0
-10 -1.7358618e-15 0
-10 -2.9079035e-17 0
-10 1.6814951e-15 0
-10 -1.7256637e-15 0
-10 -7.2604198e-17 0
-10 3.4469026e-17 0
-10 1.7947266e-15 0
-10 -1.7971582e-15 0
-10 -6.2031211e-18 0
-10 6.9440523e-17 0
-10 1.6020942e-15 0
-10 -5.5956546e-14 0
-10 6.3406649e-11 0
-10 3.0535389e-08 0
-10 -1.778095e-05 0
-10 -0.0030027358 0
-10 0.0030027358 0
-10 1.778095e-05 0
-10 -3.0535389e-08 0
-10 -6.3407132e-11 0
-10 5.4728714e-14 0
-10 6.3572977e-17 0
-10 -2.5675476e-18 0
-10 -8.5753669e-16 0
-10 2.0165782e-15 0
-10 -1.7358618e-15 0
-10 -2.9079035e-17 0
-10 1.6814951e-15 0
-10 -1.7258111e-15 0
-10 -7.2604198e-17 0
-10 3.4469026e-17 0
-10 1.7947266e-15 0
-10 -1.7971582e-15 0
-10 -6.2031211e-18 0
-10 6.9440523e-17 0
-10 1.6020944e-15 0
-10 -5.5956547e-14 0
-10 6.3406649e-11 0
-10 3.0535389e-08 0
-10 -1.778095e-05 0
-10 -0.0030027358 0
-10 0.0030027358 0
-10 1.778095e-05 0
-10 -3.0535389e-08 0
-10 -6.3407132e-11 0
-10 5.4728549e-14 0
-10 6.368586e-17 0
-10 -2.5155437e-18 0
-10 -8.5774794e-16 0
-10 2.016548e-15 0
-10 -1.7358453e-15 0
-10 -2.9198875e-17 0
-10 1.6813935e-15 0
-10 -1.725719e-15 0
-10 -7.2697621e-17 0
-10 3.4641019e-17 0
-10 1.7946144e-15 0
-10 -1.7970714e-15 0
-10 -6.2131079e-18 0
-10 6.9459876e-17 0
-10 1.6018993e-15 0
-10 -5.5956595e-14 0
-10 6.3406649e-11 0
-10 3.0535389e-08 0
-10 -1.778095e-05 0
-10 -0.0030027358 0
-10 0.0030027358 0
-10 1.778095e-05 0
-10 -3.0535389e-08 0
-10 -6.3407133e-11 0
-10 5.47289e-14 0
-10 6.3778831e-17 0
-10 -2.5675514e-18 0
-10 -8.5811275e-16 0
-10 2.01686e-15 0
-10 -1.7359222e-15 0
-10 -2.9096004e-17 0
-10 1.6816009e-15 0
-10 -1.7261193e-15 0
-10 -7.2119158e-17 0
-10 3.4637066e-17 0
-10 1.7947372e-15 0
-10 -1.7972185e-15 0
-10 -6.2057463e-18 0
-10 6.9547441e-17 0
-10 1.6014197e-15 0
-10 -5.5956639e-14 0
-10 6.340665e-11 0
-10 3.0535389e-08 0
-10 -1.778095e-05 0
-10 -0.0030027358 0
-10 0.0030027358 0
-10 1.778095e-05 0
-10 -3.0535389e-08 0
-10 -6.3407129e-11 0
-10 5.4728823e-14 0
-10 6.3737201e-17 0
-10 -2.5511051e-18 0
-10 -8.5778428e-16 0
-10 2.0166129e-15 0
-10 -1.735834e-15 0
-10 -2.9116471e-17 0
-10 1.6814925e-15 0
-10 -1.7260075e-15 0
-10 -7.2503149e-17 0
-10 3.4641512e-17 0
-10 1.7948256e-15 0
-10 -1.7974075e-15 0
-10 -6.2071649e-18 0
-10 6.9771242e-17 0
-10 1.6016691e-15 0
-10 -5.5956573e-14 0
-10 6.3406645e-11 0
-10 3.0535389e-08 0
-10 -1.778095e-05 0
-10 -0.0030027358 0
-10 0.0030027364 0
-10 1.7780947e-05 0
-10 -3.0535564e-08 0
-10 -6.340707e-11 0
-10 5.4728474e-14 0
-10 6.3625345e-17 0
-10 -2.4598264e-18 0
-10 -8.5723618e-16 0
-10 2.0164586e-15 0
-10 -1.7355776e-15 0
-10 -2.8753721e-17 0
-10 1.6819831e-15 0
-10 -1.7247025e-15 0
-10 -7.3604112e-17 0
-10 3.4348204e-17 0
-10 1.7942899e-15 0
-10 -1.7973637e-15 0
-10 -6.2071268e-18 0
-10 6.9731214e-17 0
-10 1.6021088e-15 0
-10 -5.595662e-14 0
-10 6.3406572e-11 0
-10 3.0535563e-08 0
-10 -1.7780947e-05 0
-10 -0.0030027364 0
-10.000018 0.0030028141 0
-10.000018 1.7790547e-05 0
-10.000018 -3.0541372e-08 0
-10.000018 -6.3430659e-11 0
-10.000018 5.4744321e-14 0
-10.000018 6.4128653e-17 0
-10.000018 -2.7378028e-18 0
-10.000018 -8.5919084e-16 0
-10.000018 2.0165146e-15 0
-10.000018 -1.7362289e-15 0
-10.000018 -3.0184613e-17 0
-10.000018 1.6799487e-15 0
-10.000018 -1.7284972e-15 0
-10.000018 -7.0939907e-17 0
-10.000018 3.5883272e-17 0
-10.000018 1.7958531e-15 0
-10.000018 -1.7977598e-15 0
-10.000018 -6.2074681e-18 0
-10.000018 7.0093507e-17 0
-10.000018 1.6005682e-15 0
-10.000018 -5.5971552e-14 0
-10.000018 6.3430105e-11 0
-10.000018 3.0541371e-08 0
-10.000018 -1.7790547e-05 0
-10.000018 -0.0030028141 0
-10.002837 0.002837019 0
-10.003003 1.8010472e-05 0
-10.003003 -2.9495641e-08 0
-10.003003 -6.4194779e-11 0
-10.003003 5.315132e-14 0
-10.003003 6.5371002e-17 0
-10.003003 -2.9292757e-18 0
-10.003003 -8.3847005e-16 0
-10.003003 1.9652383e-15 0
-10.003003 -1.6925528e-15 0
-10.003003 -3.0485471e-17 0
-10.003003 1.635989e-15 0
-10.003003 -1.6868892e-15 0
-10.003003 -6.7849442e-17 0
-10.003003 3.6273899e-17 0
-10.003003 1.7512133e-15 0
-10.003003 -1.7523889e-15 0
-10.003003 -6.207354e-18 0
-10.003003 6.8769606e-17 0
-10.003003 1.5567116e-15 0
-10.003003 -5.4314191e-14 0
-10.003003 6.4193884e-11 0
-10.003003 2.9495641e-08 0
-10.003003 -1.8010472e-05 0
-10.002837 -0.002837019 0
9.9245791 1.4312677 0
10.042975 0.03536933 0
10.043047 -9.4135197e-06 0
10.043047 -2.8479562e-08 0
10.043047 2.2270475e-09 0
10.043047 3.7438369e-13 0
10.043047 -1.9554815e-13 0
10.043047 -7.8331554e-13 0
10.043047 2.842571e-15 0
10.043047 -3.9350745e-13 0
10.043047 -7.8214495e-13 0
10.043047 -1.3050401e-12 0
10.043047 -4.7758359e-11 0
10.043047 1.3092303e-12 0
10.043047 7.8216142e-13 0
10.043047 7.846471e-13 0
10.043047 -2.5298048e-15 0
10.043047 -1.2720565e-17 0
10.043047 9.5831881e-17 0
10.043047 -7.8017605e-13 0
10.043047 -9.4392966e-13 0
10.043047 2.8841514e-08 0
10.043047 9.4209294e-06 0
10.042975 -0.035369323 0
9.9245791 -1.4312677 0
-9.9278755 -1.6279025 0
-10.043825 -0.040422458 0
-10.043899 1.0917514e-05 0
-10.043899 7.2352064e-09 0
-10.043899 -2.0813393e-09 0
-10.043899 2.6909187e-13 0
-10.043899 -1.3407219e-13 0
-10.043899 -5.3725436e-13 0
-10.043899 2.7084355e-15 0
-10.043899 -2.7038661e-13 0
-10.043899 -5.3613881e-13 0
-10.043899 -6.6369441e-13 0
-10.043899 3.8052721e-11 0
-10.043899 6.6689643e-13 0
-10.043899 5.3615417e-13 0
-10.043899 5.3852036e-13 0
-10.043899 -2.4099969e-15 0
-10.043899 -1.1570801e-17 0
-10.043899 9.2249324e-17 0
-10.043899 -5.337742e-13 0
-10.043899 -4.1561002e-13 0
-10.043899 -7.6610791e-09 0
-10.043899 -1.092611e-05 0
-10.043825 0.040422449 0
-9.9278755 1.6279025 0
9.9371246 1.5381619 0
10.041866 0.038843409 0
10.041931 -8.8476125e-06 0
10.041931 -2.4710921e-08 0
10.041931 5.3624061e-10 0
10.041931 1.755102e-13 0
10.041931 -9.011922e-14 0
10.041931 -3.6155355e-13 0
10.041931 2.561085e-15 0
10.041931 -1.8244073e-13 0
10.041931 -3.6050375e-13 0
10.041931 -5.3853981e-13 0
10.041931 -6.4687908e-13 0
10.041931 5.4063136e-13 0
10.041931 3.6051234e-13 0
10.041931 3.6275011e-13 0
10.041931 -2.2798946e-15 0
10.041931 -1.0424933e-17 0
10.041931 8.7122274e-17 0
10.041931 -3.5877559e-13 0
10.041931 -7.5542489e-13 0
10.041931 2.53338e-08 0
10.041931 8.8563905e-06 0
10.041866 -0.0388434 0
9.9371246 -1.5381619 0
-9.9370697 -1.3712627 0
-10.044185 -0.034848677 0
-10.044254 7.3703969e-06 0
-10.044254 2.0139233e-08 0
-10.044254 -4.3635643e-10 0
-10.044254 1.0159901e-13 0
-10.044254 -5.1990528e-14 0
-10.044254 -2.0888008e-13 0
-10.044254 2.4144313e-15 0
-10.044254 -1.0600846e-13 0
-10.044254 -2.0789024e-13 0
-10.044254 -3.0976622e-13 0
-10.044254 -4.1778408e-13 0
-10.044254 3.1169548e-13 0
-10.044254 2.0789791e-13 0
-10.044254 2.1000729e-13 0
-10.044254 -2.1497857e-15 0
-10.044254 -9.2852901e-18 0
-10.044254 8.2057299e-17 0
-10.044254 -2.0682237e-13 0
-10.044254 -7.7936303e-13 0
-10.044254 -2.0724931e-08 0
-10.044254 -7.3783123e-06 0
-10.044185 0.034848669 0
-9.9370697 1.3712627 0
10.038374 0.25329201 0
10.040953 0.0064818919 0
10.040955 -1.1057675e-06 0
10.040955 -2.2266976e-09 0
10.040955 6.0634413e-13 0
10.040955 1.9753461e-13 0
10.040955 -9.8748122e-14 0
10.040955 -3.959439e-13 0
10.040955 2.2683223e-15 0
10.040955 -1.9944449e-13 0
10.040955 -3.950134e-13 0
10.040955 -5.9057811e-13 0
10.040955 -7.9190217e-13 0
10.040955 5.9238702e-13 0
10.040955 3.950202e-13 0
10.040955 3.9700141e-13 0
10.040955 -2.0201162e-15 0