# vtk DataFile Version 4.0
hesp visualization file
ASCII
DATASET UNSTRUCTURED_GRID
POINTS 1250 double
38.330398 4.0737052 4
33.918113 -5.9629515 4
33.494479 7.3486014 4
29.926543 -0.89371953 4
31.748169 3.336324 4
32.302781 7.5013209 4
29.546062 6.1222572 4
33.732087 5.4775568 4
28.677575 9.4078117 4
32.247352 13.058041 4
25.293178 13.995393 4
32.896216 16.515773 4
32.5047 16.071129 4
33.096758 19.820035 4
31.196139 16.802932 4
31.01022 17.847918 4
27.147526 17.798044 4
30.789225 17.563764 4
30.445499 21.935723 4
29.651325 19.456121 4
34.079094 21.743631 4
34.5885 32.313787 4
34.446314 28.135335 4
33.797984 30.725161 4
29.817953 31.884717 4
31.995397 -17.566467 4
27.541966 2.5228733 4
34.847028 -7.5062719 4
35.65013 5.0950933 4
38.904151 4.7016529 4
30.021078 9.0717094 4
31.119072 2.0998793 4
28.325706 11.42404 4
30.742992 10.591835 4
30.148623 16.623915 4
32.712631 12.587565 4
28.099359 12.315344 4
29.385259 16.849976 4
28.593331 18.291767 4
30.066761 13.901973 4
34.127135 16.759231 4
32.215561 16.944247 4
31.23477 20.942705 4
28.31559 17.386718 4
27.62166 21.703888 4
28.173513 24.231603 4
33.39673 24.716133 4
34.865992 36.683881 4
31.262692 33.023327 4
31.995398 46.75048 4
31.749294 -6.9764146 4
32.681692 2.9328806 4
32.471921 8.5480531 4
33.319847 5.3592275 4
36.891323 4.6186065 4
28.550369 13.524989 4
30.548224 15.183996 4
30.472877 11.519125 4
31.471807 7.0879976 4
29.161764 9.8528875 4
32.595587 10.910401 4
32.708666 11.969418 4
31.226634 15.767778 4
33.531441 15.248871 4
33.601717 18.169798 4
29.945048 19.000554 4
26.922133 18.763597 4
30.038946 22.317544 4
32.15397 19.630206 4
31.151255 21.673979 4
38.014649 22.384861 4
34.70166 28.622541 4
30.076756 28.294355 4
28.732228 26.805026 4
31.782028 36.142623 4
31.413155 -4.5430397 4
35.776779 -11.374147 4
33.214729 5.1380614 4
35.479143 2.301189 4
27.804001 2.9739345 4
30.335028 10.429687 4
32.425171 5.3629864 4
32.925575 11.60167 4
31.077379 10.983604 4
32.828813 6.3671106 4
31.596477 10.455264 4
29.57501 12.440849 4
25.983475 11.585249 4
32.996506 13.713923 4
30.896017 16.121873 4
30.482597 18.269225 4
37.333982 16.092297 4
29.978996 21.786749 4
32.781389 27.053483 4
27.816601 25.711894 4
33.902275 28.057087 4
35.762432 23.587369 4
30.875179 28.770379 4
35.776787 40.558164 4
31.689721 34.630975 4
32.423857 9.8933662 4
32.477416 0.41427224 4
34.332625 -3.3862664 4
35.586349 -1.8811548 4
33.958368 9.5280577 4
29.705323 0.13707253 4
32.237778 7.8844146 4
34.576941 14.434706 4
34.123229 14.428364 4
30.661969 14.36542 4
33.499677 16.194 4
37.149808 16.443089 4
33.678774 14.816065 4
30.746854 16.819547 4
29.215036 17.036958 4
33.8617 17.963705 4
32.712959 17.417078 4
30.92001 22.307972 4
32.194742 25.200912 4
29.228992 19.717641 4
25.867376 12.139147 4
30.551545 19.674251 4
36.968623 29.690771 4
33.61092 27.232715 4
35.479047 23.34478 4
30.318017 -6.2959447 4
30.994913 -10.477556 4
33.479376 0.72330793 4
28.470704 10.306399 4
34.027897 8.4959675 4
30.453672 0.17940909 4
35.612432 7.454017 4
36.829323 5.3645693 4
30.127649 4.8850476 4
36.057428 7.6347781 4
31.853949 13.235984 4
34.202337 13.507493 4
37.454045 7.66584 4
34.928791 15.288884 4
36.551357 19.753896 4
33.690216 18.458356 4
31.354561 17.948708 4
30.062677 19.232789 4
29.764661 22.833282 4
26.784302 26.527995 4
35.040703 25.429764 4
30.989666 25.900254 4
33.465046 21.813417 4
30.995556 39.661751 4
30.347971 35.477761 4
31.178264 -0.1947283 4
34.785727 -1.2493814 4
27.955665 -3.6517849 4
34.304381 2.0975193 4
26.463164 -0.33594024 4
34.089723 8.2430867 4
38.411047 9.3754371 4
30.998415 5.505806 4
32.051752 9.8685006 4
34.244946 11.2518 4
30.450641 14.676213 4
35.262706 18.188019 4
34.604681 16.679548 4
33.338565 12.117702 4
32.992919 17.041213 4
36.111357 16.885665 4
30.260406 22.634195 4
32.629544 20.24679 4
32.49937 25.426943 4
32.75468 24.660993 4
30.10063 23.249882 4
37.175206 21.143833 4
25.709114 32.0851 4
35.768432 24.649054 4
34.648905 30.635675 4
41.469778 -12.013066 4
31.67589 2.4713135 4
34.60104 -1.4799931 4
31.064744 7.8205066 4
37.27735 5.2477215 4
31.31101 4.6965546 4
36.220731 8.6793214 4
34.241541 15.12356 4
33.860049 13.215783 4
36.905561 8.5944143 4
33.5281 11.205225 4
33.460555 14.525884 4
31.039939 13.815393 4
34.676933 15.67847 4
34.996848 12.774961 4
37.419566 16.865647 4
31.869753 21.043673 4
40.05556 24.328554 4
30.832154 20.280995 4
28.19246 19.031772 4
36.005445 29.545228 4
31.934157 27.281409 4
33.051987 27.407482 4
31.388706 25.558378 4
41.469778 41.197079 4
29.598655 0.66588402 4
30.254981 -0.47805785 4
33.568856 -4.2165869 4
30.938061 12.120958 4
38.045427 6.8087408 4
35.90087 3.266773 4
32.68942 7.8455044 4
33.99574 14.879273 4
33.395576 15.590437 4
34.706121 14.768832 4
35.6485 14.363527 4
31.116016 15.206703 4
31.570985 18.477204 4
34.068827 15.83305 4
35.171478 22.929286 4
33.840644 12.771281 4
31.100787 20.656823 4
36.586792 21.604668 4
34.88468 18.463223 4
35.09937 20.980474 4
33.346355 24.126995 4
42.035014 21.555887 4
36.316995 35.894912 4
30.302202 27.747158 4
32.296097 27.773677 4
33.402752 -0.2615164 4
31.644402 -7.9199675 4
30.884411 -2.6820295 4
35.356799 4.4311529 4
33.88524 6.8787004 4
33.919428 10.233933 4
34.600195 11.005971 4
33.081552 12.460957 4
38.913992 9.642851 4
37.543479 9.2435403 4
36.311606 11.218996 4
34.653725 13.440966 4
33.741611 12.261544 4
36.660364 12.108818 4
34.864871 14.49815 4
37.045121 18.890713 4
37.794756 14.582361 4
31.719591 16.818483 4
37.164138 20.234118 4
38.108501 23.023215 4
32.936761 21.260635 4
36.425702 21.825764 4
33.865292 32.971165 4
31.32716 37.747404 4
31.821659 28.209695 4
37.273297 -1.559169 4
36.13294 2.2690491 4
39.689923 4.7055301 4
31.243594 -3.8315676 4
38.691465 3.3366069 4
38.79425 6.8661315 4
37.019472 6.7193019 4
29.630367 9.6851939 4
35.188533 4.9802042 4
35.103207 11.494067 4
32.757798 9.8802469 4
38.690183 15.708572 4
35.723028 13.870033 4
36.231636 18.743202 4
36.867487 17.346637 4
35.568909 22.693591 4
37.472207 21.79712 4
33.473922 21.096622 4
32.057374 21.241302 4
37.418526 21.53242 4
38.008613 27.177614 4
31.575659 30.7254 4
33.109453 22.451383 4
34.468637 26.789822 4
28.484673 32.614459 4
29.07708 -4.3017944 4
30.283903 -2.9361378 4
40.292312 9.6731915 4
34.109605 -0.58014702 4
33.24131 3.9964453 4
33.674228 1.2030524 4
32.616524 7.5938901 4
31.001829 9.0613219 4
33.294784 10.788535 4
34.013728 10.73618 4
43.573095 14.419214 4
37.103535 13.35456 4
36.60774 16.446258 4
38.268453 13.760211 4
38.397922 17.932562 4
35.475578 20.041771 4
36.560468 19.263753 4
36.263391 20.30483 4
34.317149 20.932192 4
45.796016 25.708084 4
31.859819 22.613425 4
34.72283 25.691338 4
38.708102 16.927387 4
32.922606 34.081473 4
32.625125 34.040189 4
30.271936 -3.2836119 4
32.925231 -4.5070023 4
40.444215 2.3640024 4
39.063132 6.6477416 4
36.999198 4.1460028 4
39.422325 4.3863509 4
38.513882 10.893152 4
36.572225 6.481838 4
38.371223 13.02537 4
41.33423 16.23212 4
36.801818 14.579078 4
35.76944 12.096675 4
33.233374 15.811179 4
32.525657 16.629452 4
40.259896 17.343051 4
35.878065 19.173457 4
37.688384 23.287981 4
34.416478 18.142256 4
35.298095 20.374406 4
43.674322 24.715283 4
34.663841 23.128036 4
38.726544 26.122023 4
39.554078 27.418621 4
32.202876 37.11228 4
32.118829 32.967845 4
31.550891 -6.6547012 4
31.678167 1.7557369 4
33.404907 -3.6451812 4
34.875602 5.0167585 4
35.333927 0.53465268 4
34.169833 12.884584 4
34.990054 10.878616 4
38.000814 6.440877 4
36.41899 10.187133 4
34.507246 11.628511 4
37.856056 12.756264 4
37.299213 11.570299 4
41.455059 16.466488 4
39.490989 16.446876 4
37.059231 16.053182 4
37.724878 20.521744 4
36.850631 19.142483 4
37.542384 17.977391 4
33.732484 19.006876 4
37.4304 21.04831 4
39.084337 26.286928 4
34.48057 30.262188 4
33.324266 34.109818 4
35.344368 32.801796 4
31.406421 33.48406 4
34.840412 -6.5627055 4
30.348548 -0.71266412 4
37.155314 1.7441561 4
37.544718 2.7804138 4
33.335223 1.2844276 4
33.370347 6.5274527 4
34.266152 8.056644 4
39.69189 7.5495299 4
39.166501 12.154116 4
37.082257 13.585993 4
37.216882 12.535586 4
37.558489 15.14835 4
41.650451 10.29563 4
40.219336 10.180901 4
36.756919 17.721108 4
41.690023 13.704054 4
38.153032 14.286789 4
39.847633 16.176825 4
34.447747 20.126792 4
40.664815 21.768001 4
38.267361 23.393038 4
34.484234 24.457697 4
31.151991 27.275064 4
31.671385 31.670208 4
35.477902 33.991662 4
36.536481 -4.212245 4
36.710652 2.1088296 4
36.670014 8.2576071 4
35.11865 -0.17379295 4
37.682697 7.9497811 4
37.955574 4.9391323 4
37.220709 8.8617789 4
40.580855 8.8854487 4
39.612793 7.1019485 4
42.728073 9.0875443 4
42.112087 11.885335 4
37.224287 11.266291 4
33.949289 15.337724 4
39.062336 17.100214 4
41.963327 13.774501 4
43.482528 15.111782 4
38.011288 19.27221 4
39.296702 18.630603 4
39.58977 21.754522 4
39.751467 18.610969 4
38.073163 24.846041 4
35.972445 26.297365 4
38.66076 27.123808 4
34.755405 24.510836 4
36.189802 33.837393 4
38.32607 -4.4838824 4
38.802901 5.3742413 4
36.13732 0.63278903 4
41.355994 6.3070909 4
36.440526 3.3978295 4
37.095178 6.2100619 4
38.135784 7.2283151 4
37.559212 11.211161 4
36.414425 9.3826256 4
39.305556 11.863917 4
38.328405 12.475558 4
36.535617 13.951507 4
36.034713 11.88203 4
39.201516 17.81276 4
38.364854 17.664589 4
37.977832 17.548959 4
38.290085 20.273859 4
40.0302 17.583924 4
41.939548 20.681296 4
33.293257 22.846247 4
38.723982 23.367852 4
45.078149 23.298131 4
40.828116 32.028611 4
36.466072 26.409727 4
32.463983 34.683625 4
34.366146 -1.793643 4
30.954103 1.3975814 4
35.108586 1.2199689 4
32.97673 4.2134219 4
35.935845 10.210631 4
38.868443 7.8788213 4
41.583724 4.2272509 4
42.005308 4.4542458 4
38.76304 11.788021 4
40.731051 14.116628 4
39.59715 9.4765112 4
38.421922 14.328779 4
44.294178 11.334272 4
37.070539 17.1814 4
39.308022 17.016694 4
38.101775 18.395113 4
43.678609 19.755063 4
39.556948 20.100007 4
40.285293 19.131503 4
36.002735 23.206567 4
38.289097 24.071894 4
35.074284 25.967849 4
35.902075 28.553964 4
38.038176 29.324106 4
33.215408 28.179684 4
32.873603 -2.5647704 4
36.400266 -5.9218051 4
[...]
POINT_DATA 1250
SCALARS m double
LOOKUP_TABLE default
1
1
1
1
1
1
1
1
1
1
1
1
1
1
1
1
1
1
1
1
1
1
1
1
1
1
1
1
1
1
1
1
1
1
1
1
1
1
1
1
1
1
1
1
1
1
1
1
1
1
1
1
1
1
1
1
1
1
1
1
1
1
1
1
1
1
1
1
1
1
1
1
1
1
1
1
1
1
1
1
1
1
1
1
1
1
1
1
1
1
1
1
1
1
1
1
1
1
1
1
1
1
1
1
1
1
1
1
1
1
1
1
1
1
1
1
1
1
1
1
1
1
1
1
1
1
1
1
1
1
1
1
1
1
1
1
1
1
1
1
1
1
1
1
1
1
1
1
1
1
1
1
1
1
1
1
1
1
1
1
1
1
1
1
1
1
1
1
1
1
1
1
1
1
1
1
1
1
1
1
1
1
1
1
1
1
1
1
1
1
1
1
1
1
1
1
1
1
1
1
1
1
1
1
1
1
1
1
1
1
1
1
1
1
1
1
1
1
1
1
1
1
1
1
1
1
1
1
1
1
1
1
1
1
1
1
1
1
1
1
1
1
1
1
1
1
1
1
1
1
1
1
1
1
1
1
1
1
1
1
1
1
1
1
1
1
1
1
1
1
1
1
1
1
1
1
1
1
1
1
1
1
1
1
1
1
1
1
1
1
1
1
1
1
1
1
1
1
1
1
1
1
1
1
1
1
1
1
1
1
1
1
1
1
1
1
1
1
1
1
1
1
1
1
1
1
1
1
1
1
1
1
1
1
1
1
1
1
1
1
1
1
1
1
1
1
1
1
1
1
1
1
1
1
1
1
1
1
1
1
1
1
1
1
1
1
1
1
1
1
1
1
1
1
1
1
1
1
1
1
1
1
1
1
1
1
1
1
1
1
1
1
1
1
1
1
1
1
1
1
1
1
1
1
1
1
1
1
1
1
1
1
1
1
1
1
1
1
1
1
1
1
1
1
1
1
1
1
1
1
1
1
1
1
1
1
1
1
1
1
1
1
1
1
1
1
1
1
1
1
1
1
1
1
1
1
1
1
1
1
1
1
1
1
1
1
1
1
1
1
1
1
1
1
1
1
1
1
1
1
1
1
1
1
1
1
1
1
1
1
1
1
1
1
1
1
1
1
1
1
1
1
1
1
1
1
1
1
1
1
1
1
1
1
1
1
1
1
1
1
1
1
1
1
1
1
1
1
1
1
1
1
1
1
1
1
1
1
1
1
1
1
1
1
1
1
1
1
1
1
1
1
1
1
1
1
1
1
1
1
1
1
1
1
1
1
1
1
1
1
1
1
1
1
1
1
1
1
1
1
1
1
1
1
1
1
1
1
1
1
1
1
1
1
1
1
1
1
1
1
1
1
1
1
1
1
1
1
1
1
1
1
1
1
1
1
1
1
1
1
1
1
1
1
1
1
1
1
1
1
1
1
1
1
1
1
1
1
1
1
1
1
1
1
1
1
1
1
1
1
1
1
1
1
1
1
1
1
1
1
1
1
1
1
1
1
1
1
1
1
1
1
1
1
1
1
1
1
1
1
1
1
1
1
1
1
1
1
1
1
1
1
1
1
1
1
1
1
1
1
1
1
1
1
1
1
1
1
1
1
1
1
1
1
1
1
1
1
1
1
1
1
1
1
1
1
1
1
1
1
1
1
1
1
1
1
1
1
1
1
1
1
1
1
1
1
1
1
1
1
1
1
1
1
1
1
1
1
1
1
1
1
1
1
1
1
1
1
1
1
1
1
1
1
1
1
1
1
1
1
1
1
1
1
1
1
1
1
1
1
1
1
1
1
1
1
1
1
1
1
1
1
1
1
1
1
1
1
1
1
1
1
1
1
1
1
1
1
1
1
1
1
1
1
1
1
1
1
1
1
1
1
1
1
1
1
1
1
1
1
1
1
1
1
1
1
1
1
1
1
1
1
1
1
1
1
1
1
1
1
1
1
1
1
1
1
1
1
1
1
1
1
1
1
1
1
1
1
1
1
1
1
1
1
1
1
1
1
1
1
1
1
1
1
1
1
1
1
1
1
1
1
1
1
1
1
1
1
1
1
1
1
1
1
1
1
1
1
1
1
1
1
1
1
1
1
1
1
1
1
1
1
1
1
1
1
1
1
1
1
1
1
1
1
1
1
1
1
1
1
1
1
1
1
1
1
1
1
1
1
1
1
1
1
1
1
1
1
1
1
1
1
1
1
1
1
1
1
1
1
1
1
1
1
1
1
1
1
1
1
1
1
1
1
1
1
1
1
1
1
1
1
1
1
1
1
1
1
1
1
1
1
1
1
1
1
1
1
1
1
1
1
1
1
1
1
1
1
1
1
1
1
1
1
1
1
1
1
1
1
1
1
1
1
1
1
1
1
1
1
1
1
1
1
1
1
1
1
1
1
1
1
1
1
1
1
1
1
1
1
1
1
1
1
1
1
1
1
1
1
1
1
1
1
1
1
1
1
1
1
1
1
1
1
1
1
1
1
1
1
1
1
1
1
1
1
1
1
1
1
1
1
1
1
1
1
1
1
1
1
1
1
1
1
1
1
1
1
1
1
1
1
1
1
1
1
1
1
1
1
1
1
1
1
1
1
1
1
1
1
1
1
1
1
1
1
1
1
1
1
1
1
1
1
1
1
1
1
1
1
1
1
1
1
1
1
1
1
1
1
1
1
1
1
1
1
1
1
1
1
1
1
1
1
1
1
1
1
1
1
1
1
1
1
1
1
1
1
1
1
1
1
1
1
1
1
1
1
1
1
1
1
1
1
1
1
1
1
1
1
1
1
1
1
1
1
1
1
1
1
1
1
1
1
1
1
1
1
1
1
VECTORS v double
-7.5537209 -6.5774313 0
4.5429441 -10.037567 0
-3.7145324 3.0242228 0
5.3939381 -10.758737 0
5.4951586 -5.9997831 0
5.2443265 -4.9867353 0
5.9723924 -13.854997 0
-0.58056372 -2.1911268 0
-14.696111 -9.3614725 0
-10.737746 -3.3964074 0
3.4506856 3.4790141 0
-1.1167163 4.0843954 0
-10.788355 5.689916 0
-11.27287 2.802899 0
3.320712 8.5392679 0
-0.92699295 7.9970315 0
2.4288131 -7.3581048 0
-3.5231847 -3.1677189 0
-5.5944264 5.844712 0
-8.8169919 0.30474608 0
-7.7508175 -7.4366586 0
-3.8483706 10.944676 0
-11.976509 4.2031087 0
-5.5376921 7.8557405 0
5.5124446 6.6987307 0
2.6309649 -13.726701 0
-8.8166858 -0.871392 0
5.3673409 -9.5892246 0
-4.4045146 -4.7484055 0
1.2005027 -0.79431794 0
5.2638122 0.067945718 0
-5.8607381 0.35823437 0
1.2184547 5.3651711 0
0.0079192772 -1.5484028 0
2.4071488 5.9455478 0
-9.0822837 5.8765212 0
0.85267821 1.1914618 0
-4.9279197 -2.2068325 0
12.001626 3.1653649 0
6.641729 8.988788 0
-0.15458778 -6.3589773 0
-11.408132 8.8684426 0
-2.5802924 -1.0028151 0
-3.101856 -5.4588112 0
-1.8951692 -3.878918 0
-8.4141944 4.5279023 0
1.2593407 -4.743613 0
5.3884311 9.5854469 0
5.3798404 3.5918722 0
2.630965 13.726701 0
-0.3757483 -9.3683661 0
-4.522621 -3.5993409 0
15.341237 -3.6815936 0
2.7101769 -13.515345 0
2.9221441 -6.1482239 0
1.4665951 -4.0641407 0
-1.8436533 -4.3244039 0
-18.011079 4.8902044 0
1.8652103 0.91828512 0
-3.7172898 4.1446638 0
3.8513257 2.3642931 0
3.567054 -13.355233 0
-2.4955949 -4.6604416 0
14.167218 9.6630304 0
-7.3585828 0.99228468 0
0.35132753 0.020304549 0
-12.772466 -8.6812437 0
-11.555094 16.046644 0
4.1333341 -3.2687887 0
-2.0629172 9.9848437 0
11.279596 -0.40071875 0
-2.1957763 7.4887843 0
-9.4565581 2.6808268 0
-7.0786212 11.291096 0
-0.18714238 9.4825773 0
-0.22875727 -3.6165974 0
6.8350487 -10.617898 0
4.4310317 -3.911798 0
0.78095884 -17.33186 0
-0.45386185 5.0357062 0
8.2643709 4.8091945 0
-3.2295759 -3.7380278 0
11.937791 -5.7352852 0
7.136954 -2.1501011 0
-3.2246626 -9.5035161 0
11.483161 -3.76371 0
12.975904 4.4765599 0
3.3317215 1.8918421 0
12.095183 -4.1993093 0
-2.6627742 -6.316725 0
-3.6609119 -1.7129255 0
1.1495407 -8.8686663 0
-1.9089812 2.2453203 0
0.77106292 10.069504 0
-5.6096683 1.0100524 0
-4.5376596 7.9669777 0
-4.4180883 14.52195 0
15.84226 7.3194431 0
6.8350551 10.617903 0
1.4001512 8.8742603 0
6.6273014 1.8049779 0
5.3517676 -14.671998 0
-4.1878122 -6.8561569 0
-6.0471109 -10.966736 0
4.1659588 -1.7799628 0
-1.893243 -5.4795109 0
5.9533387 -9.4421708 0
1.1670115 3.0424649 0
-4.9445818 5.8849944 0
-10.368111 -3.708288 0
0.63985123 -2.1890947 0
-7.9466283 5.0111285 0
-7.5183518 -6.7984013 0
0.83739612 -0.80267801 0
8.1881643 2.0927971 0
10.306558 10.171183 0
0.47132316 -0.27995217 0
4.5605005 4.7716235 0
2.2895123 3.434106 0
-12.979989 16.73287 0
-4.7687347 -17.990467 0
-5.8747336 1.5558726 0
9.6123364 -1.0691715 0
-2.8414832 9.2101125 0
-1.6579475 7.6147913 0
0.94240285 -6.3384027 0
-1.9959943 -10.927605 0
1.4919745 -8.3161265 0
8.0510968 -9.7663359 0
12.227407 -0.35868934 0
-2.1398288 -7.5397407 0
-3.154167 1.8133729 0
0.74235767 -10.967562 0
-7.1115361 -3.6574812 0
4.2958975 0.27532881 0
2.5122743 4.4067673 0
-4.0435477 5.8536178 0
15.449162 -6.1067626 0
9.9852016 -0.12957826 0
3.7951479 6.9106973 0
1.9206848 -1.6663599 0
7.7106758 10.880185 0
-0.60225877 -3.431707 0
-3.6751292 9.8142577 0
-0.46574036 3.5294329 0
2.862549 5.5567181 0
2.5450966 -2.2446498 0
-2.1046302 0.99725244 0
-1.9954042 10.927767 0
1.1210268 6.3268139 0
9.6738804 -8.5050703 0
-4.1928844 -5.1868136 0
-0.42291284 -8.8529001 0
1.1778507 -13.163306 0
-1.4910549 -11.408193 0
-1.4013684 -4.967025 0
-6.0257778 4.9127005 0
-3.0131886 -9.0402374 0
3.2997752 1.442179 0
-6.1552871 -1.5443064 0
-7.9881551 3.5395953 0
5.4620241 7.4156813 0
-2.2392611 -1.0582539 0
5.0989995 -5.7105976 0
-5.6095185 6.523109 0
6.2693203 -8.1617211 0
-3.4012335 4.9008752 0
-5.4802534 2.4865401 0
-1.9553239 14.420196 0
10.30115 8.5373879 0
1.6906454 -7.1882589 0
6.4936321 -3.2691472 0
-7.0096177 8.2953919 0
-8.3299479 3.0878282 0
6.3586425 0.56958901 0
4.8370531 -9.9977527 0
-2.4413461 -0.19870853 0
4.0348496 -10.241146 0
3.9917851 8.9489428 0
12.357981 -9.0166573 0
0.55615167 -1.9586573 0
13.16035 -5.6833703 0
-10.025074 7.1501978 0
-11.1541 9.6688425 0
-7.0545336 4.1136465 0
-2.2398136 -0.48650642 0
10.519338 -16.519712 0
3.5279243 -4.6088919 0
-0.11668881 -4.6416035 0
2.1595345 1.1049159 0
16.728122 8.3200235 0
-5.7801171 -4.751648 0
-0.80544861 13.514164 0
0.62300311 -1.0341464 0
-2.8303227 1.506842 0
3.1198786 4.5876686 0
1.7843705 10.161676 0
1.5909377 4.0641391 0
1.2021692 -1.9675106 0
4.8370532 9.9977527 0
2.9276473 -4.183756 0
11.118014 -2.8370843 0
-5.5808798 -7.3317362 0
-5.5451254 11.726538 0
-6.1511667 -13.608647 0
0.6253627 -0.53146677 0
-1.0647853 -6.8758576 0
-21.655531 -0.70328165 0
1.8600242 8.6944872 0
2.6786417 5.534722 0
0.89501538 -0.8397391 0
-9.0733231 1.0461035 0
-10.903772 -3.5741296 0
0.78508333 -6.6929063 0
-5.369041 4.2077922 0
6.0470917 -4.0684205 0
-9.58517 12.462239 0
4.2272435 11.150657 0
4.7361461 15.124226 0
-0.1961273 5.4869034 0
-1.8363922 12.883022 0
5.3868357 2.2024648 0
-1.1472731 12.182335 0
-1.0921996 9.4021589 0
4.5437441 2.091456 0
-2.3927747 2.8546561 0
-3.9330429 -8.2509752 0
-8.5084761 -11.695829 0
-2.2819898 7.1311715 0
-3.7931493 -1.4927199 0
-9.126831 -4.9678718 0
-16.251455 -5.0107038 0
5.4464519 7.267769 0
-4.1288233 1.0119628 0
-2.9534439 -0.76221932 0
-12.892477 -3.3832866 0
-6.9641457 3.8384458 0
9.7138573 -5.6111393 0
11.78766 -8.9248516 0
-10.093973 -6.100427 0
-8.141689 -0.71801141 0
-0.18758158 -10.018258 0
4.0686161 5.5975436 0
2.3617558 -12.929103 0
-0.37256794 1.8292482 0
-8.785397 4.2795422 0
4.7680463 -11.679161 0
-3.8705898 17.211653 0
-7.3919998 15.261442 0
-2.7278565 -2.1412188 0
11.499436 -2.0519704 0
1.7219013 -5.233343 0
-3.8248576 -6.3311342 0
-2.3109287 -13.297369 0
-14.797136 3.5243947 0
3.1700936 9.1471108 0
3.0355149 1.1896727 0
-9.9036616 14.076365 0
4.8748781 -0.70826266 0
-5.3092758 1.4179236 0
-1.2227622 9.3989122 0
0.84874032 19.134954 0
5.7268746 -6.0779506 0
9.0753978 9.8618932 0
2.7543793 3.8264108 0
16.745107 9.4886531 0
-1.553474 5.1403628 0
5.8077642 6.6006184 0
-8.6567273 3.8590027 0
-4.572251 2.5030517 0
-1.4288846 9.7144441 0
1.9218077 -0.88400739 0
-3.272196 -5.7865201 0
-10.750692 0.54388942 0
-4.0955234 11.72666 0
-8.6336726 -5.1860947 0
6.9310618 -3.3845048 0
6.6494216 -9.389195 0
-5.8810638 -11.654949 0
-4.6659139 7.1089974 0
-2.6944379 -13.653449 0
-8.8425635 -1.5367869 0
-4.9450077 -6.7820807 0
-0.016769278 0.50555671 0
-8.9738008 7.8744557 0
16.633428 -1.1639872 0
3.012245 -9.7826725 0
7.052655 2.2554048 0
-1.0056586 -4.9712716 0
6.2355725 -1.4166535 0
12.159463 15.533879 0
7.9727015 -0.32383954 0
-2.9264735 2.0824272 0
0.50790035 -0.34372742 0
10.033828 6.1798219 0
-5.3007801 15.671549 0
-7.0664514 -2.5319034 0
7.7393104 1.8870588 0
-12.03431 10.576328 0
7.5520057 9.1646605 0
7.2523893 -5.6701622 0
8.0372413 -7.0402657 0
-0.88973723 -2.0415174 0
2.1190838 -0.0089753521 0
-2.6424448 -2.3671206 0
10.893547 -10.004085 0
-0.93843132 -0.8874142 0
3.3548884 -7.4255242 0
1.5378619 10.143137 0
15.135195 6.9475537 0
-3.1387254 4.0630282 0
-11.478503 -6.8570047 0
0.84702557 -1.0174575 0
1.7381663 2.5086745 0
-0.70987937 1.1814638 0
-2.7414507 -5.7375759 0
13.555923 13.46407 0
-2.2931151 -6.3565626 0
2.7981779 -1.837972 0
10.081632 4.745324 0
-12.641252 0.33251047 0
2.2511118 4.2674023 0
4.1697534 3.5750562 0
0.99593785 10.683809 0
6.6635612 16.554408 0
2.2327438 -14.127172 0
-9.0492446 -0.72669489 0
-4.1090469 -9.0593177 0
-9.5630499 -1.1963214 0
-11.54897 -8.9930363 0
-6.3912462 7.3058794 0
-4.4660972 0.49292988 0
-6.9584118 2.6782921 0
0.5609365 -0.072801168 0
-4.2089299 11.097743 0
-0.59358439 5.7907229 0
-2.4174709 -2.4950465 0
9.4182538 4.0056941 0
13.352433 0.18733107 0
3.1482565 4.5385137 0
-5.2116496 -0.28015879 0
-11.979436 9.1811055 0
-0.34125392 -0.63863484 0
-6.6140407 11.179403 0
-11.690525 4.2296929 0
-0.80661833 3.1317236 0
2.4842944 3.6665376 0
0.60062538 13.674404 0
0.70503826 8.7870679 0
-1.1230851 8.3288608 0
-3.1182242 -11.67322 0
-6.1109518 -4.5877148 0
3.4611532 -3.4618026 0
-5.7558657 -6.7373139 0
-9.1612873 6.6247459 0
-1.0204294 8.2197189 0
-5.1518834 6.2894333 0
-1.8561235 -2.0044856 0
-2.9528236 4.9561189 0
-7.7384348 4.6558127 0
-0.92658656 0.73824955 0
-16.070926 -9.1916105 0
-2.4094862 -2.2273294 0
-0.21548451 -0.48824938 0
-4.9366608 6.8352259 0
11.223252 -12.529701 0
3.799681 -6.2602166 0
-3.9113354 -4.5575142 0
-7.638598 -5.4621222 0
4.9878215 13.138068 0
3.9422961 2.092107 0
-8.929712 0.31668157 0
-9.5303802 0.7338608 0
0.20932451 11.51325 0
2.5415929 12.60605 0
-1.5614047 -6.7379739 0
-3.3147051 -0.77746524 0
-7.1556728 0.57813419 0
-6.147408 -4.1805541 0
-8.1122013 -11.8384 0
3.3793313 -1.5707401 0
-7.1251307 1.9970845 0
7.8051857 -3.8647192 0
5.6320339 -11.50424 0
5.7730201 -2.5333325 0
6.0954566 -1.1395567 0
7.9522205 -2.9321236 0
-4.6381472 8.6242918 0
10.898584 -3.8220489 0
19.301923 -3.7323649 0
9.6394499 -7.2258868 0
0.066122437 7.2426882 0
-3.5640102 -1.3776757 0
1.4426565 5.1912978 0
3.3323245 -1.1701086 0
0.40891197 12.67564 0
-0.063544426 0.38550654 0
-12.390426 -0.088093022 0
-3.9851894 3.5156352 0
-2.3007247 7.6069261 0
10.172865 -11.218469 0
5.641878 1.0299565 0
-8.0196676 -7.4539825 0
12.246551 10.975072 0
-14.078659 -0.59738571 0
-4.4947706 -4.2689377 0
-5.3949387 6.7922693 0
-3.2147365 7.5942054 0
-6.430334 -5.4146536 0
8.3667752 -2.6898209 0
-12.750971 -1.2135601 0
-12.673885 -5.7070793 0
3.868441 -1.3145674 0
-6.4823889 -17.964523 0
-12.599592 6.1440362 0
-2.1560497 -9.5268331 0
1.8053506 10.102258 0
-15.998229 3.598243 0
5.4748824 -2.9930977 0
-13.829366 -2.1733325 0
-5.6534836 -4.3247301 0
4.761953 -2.4919551 0
-1.9345868 9.3927975 0
-3.3265541 1.3008866 0
-8.7508737 13.079909 0
-9.4028344 -16.103973 0
-12.340646 1.4588683 0
-8.3400289 -4.4621818 0
-11.520647 -13.320866 0
-7.4458143 0.14782246 0
10.122853 -3.1879894 0
-3.7638417 -8.4882327 0
4.3107635 -3.1610251 0
-4.7582959 7.9070295 0
-3.8291783 11.442795 0
-0.030113133 6.4797915 0
-3.1673643 5.1462125 0
7.6171019 0.56943514 0
3.1266062 -9.8993246 0
7.1297923 10.423055 0
-7.5708844 2.4222792 0
9.7510703 5.7382744 0
-3.7892644 -0.16945662 0
2.5379302 -4.345005 0
-1.8463534 1.8351748 0
3.7129362 0.072617356 0
-6.0938752 1.4023158 0
-6.2007954 5.4371483 0
6.2457408 1.8344349 0
-9.707827 -2.1830991 0
-7.6583088 -13.393552 0
-6.4497478 -10.207019 0
-9.5512764 -5.4466382 0
7.3439696 0.76524233 0
3.4330491 7.3118853 0
2.6616975 -2.2522103 0
-1.6820917 -13.905174 0
-2.6727472 -10.151753 0
-0.12984085 14.632874 0
-1.0777849 -0.098420372 0
8.2128649 4.349668 0
-2.533974 -2.527788 0
4.1476771 7.2867145 0
0.72294082 -1.5382895 0
-2.9865209 0.057828035 0
2.5405072 -1.9127918 0
-6.6025848 0.39810236 0
5.6282279 4.7678315 0
4.52179 -0.043429724 0
-6.8257708 3.7764472 0
-2.3486256 -9.1395903 0
1.5483284 3.5922193 0
-2.8944817 4.6764272 0
-6.7621089 10.592675 0
6.2368023 10.046334 0
-10.217723 -1.6044857 0
-2.6061874 0.25858002 0
-6.862505 -5.6015725 0
-8.9773321 -6.1705691 0
8.2637031 -7.9403701 0
-14.278157 -3.681085 0
-1.1918776 -8.7916927 0
5.3706642 -5.3073362 0
-12.719699 -2.0840925 0
6.5337563 12.802606 0
-8.078255 -10.830111 0
13.204113 -6.9337026 0
-2.9099594 2.9458834 0
-6.3478283 4.2936082 0
3.2960564 -7.1948006 0
19.73955 -8.5702181 0
8.3764676 -1.0764474 0
11.358007 1.7763757 0
1.2706326 6.9662898 0
12.505782 1.1620271 0
-11.196928 0.92927549 0
8.3886339 5.3490778 0
-5.2555567 -3.200708 0
-6.6522369 3.7219518 0
3.363003 6.572656 0
-3.2225042 -9.8124422 0
-0.84191412 -7.910798 0
2.5929167 3.0808052 0
-2.6847895 -8.9982984 0
5.4293943 2.722892 0
2.340497 -4.7738459 0
-0.63029437 -7.3173437 0
-10.088065 -5.5463599 0
8.6325166 -4.4551326 0
9.9687867 0.15982431 0
-1.4219595 5.988385 0
-0.63575641 1.4288155 0
10.675977 0.63205708 0
0.74656741 -2.7388098 0
-2.7105497 -6.0784658 0
9.9966564 -0.11700551 0
9.7059105 -6.6124628 0
-6.7167933 -4.0610045 0
1.3413074 5.3968524 0
-0.5481797 10.485496 0
4.5768236 10.147313 0
-4.8962004 4.0591547 0
-7.8180795 6.8297314 0
-9.9104691 -0.37413625 0
-7.2339989 -1.9759247 0
-10.113666 -0.52343508 0
-1.5177376 3.8931564 0
-1.9004666 5.5780764 0
6.4446596 -7.3767645 0
5.5961321 -4.1216658 0
3.6539166 7.6151035 0
6.7401078 -1.5497119 0
9.0422312 5.1825903 0
9.4899452 -0.13322085 0
9.3906495 -0.090896547 0
9.9982033 -0.22084458 0
3.0704874 -10.740647 0
-8.2787051 10.2004 0
-4.9492116 -10.261754 0
9.9943498 -0.26929435 0
13.727602 -0.12609796 0
5.6796166 -1.8862921 0
8.9899951 -5.388321 0
-9.6067858 6.3718983 0
-8.7311678 2.022299 0
-2.8203503 -3.2624276 0
-8.8767612 1.1280029 0
2.4067936 -1.7204295 0
-10.19197 0.08608132 0
-9.400898 5.2618165 0
-8.246926 0.33917624 0
-10.579661 -0.76429453 0
-6.4790201 4.0282348 0
-3.4177284 -8.9311578 0
3.2673267 7.2033541 0
2.7627484 0.48903105 0
9.1238298 9.3450362 0
5.4061902 0.15377032 0
9.9725477 -0.0040335142 0
9.9932134 -0.0012763167 0
9.9996931 0.00056357142 0
10.002598 -0.0049486152 0
-8.6983201 2.2039847 0
10.001719 0.034243555 0
9.9998372 0.0013261753 0
9.9987961 0.00023784795 0
9.9914844 0.0020816781 0
10.01403 0.0031287866 0
11.558495 -2.3170241 0
-4.2726535 -5.2059364 0
-0.5709137 0.52665375 0
-6.070188 5.6403149 0
-8.5861673 6.6093723 0
-9.1229968 6.2344744 0
-11.926117 3.148932 0
-6.5703175 -8.461836 0
-10.772551 -6.9239558 0
-7.3526013 2.0493306 0
-0.97841252 -11.416651 0
-5.0089421 -2.1205062 0
9.9018172 -1.199422 0
10.150675 4.6494916 0
9.9891293 -0.010060689 0
10.000433 -8.1249294e-05 0
10.000469 -3.3107914e-06 0
10.000499 -3.5024722e-06 0
10.000784 1.8954264e-05 0
10.004442 -0.0012329755 0
10.000777 0.00055628122 0
10.000497 -5.4796279e-06 0
10.000493 6.2647595e-06 0
10.000227 0.00034956668 0
9.9241669 0.041229031 0
6.5064215 -6.0871019 0
9.9291947 1.2252742 0
-4.4044883 2.4868179 0
1.3270695 8.4324588 0
-11.402358 0.46119501 0
-2.8279114 -1.2822866 0
-7.4625361 0.72991186 0
-3.1313375 -0.67498038 0
-2.0525099 -2.5252614 0
-10.227155 0.2904164 0
-10.259426 -6.3643969 0
11.509527 1.2814564 0
9.8367264 -0.061612418 0
9.9595867 0.00071296223 0
9.992655 -0.00035301036 0
9.9928888 -1.3441698e-05 0
9.9928975 8.5586197e-09 0
9.9928975 -6.6734433e-09 0
9.9928964 6.7707377e-07 0
9.9929191 -1.2756124e-06 0
9.992897 3.6884369e-07 0
9.9928967 -4.3193217e-07 0
9.9928975 -8.7702403e-09 0
9.9928845 1.0431108e-05 0
9.9928018 7.8069896e-05 0
9.9876372 0.0017094707 0
9.8741316 0.049291245 0
10.411284 -0.2286933 0
-9.0982325 -0.1490547 0
-9.9766236 -0.15515673 0
-10.035791 -0.037284358 0
-10.015523 -0.015459324 0
-16.425326 -9.4874119 0
-1.8358564 -6.588959 0
-2.9585566 -13.734405 0
-4.0720018 -0.16860177 0
2.2750464 2.3868067 0
-13.589765 -6.5612495 0
8.6856321 -2.6148912 0
-11.184851 0.99565793 0
3.17325 15.266867 0
0.35559569 2.6422187 0
1.2508792 3.9980837 0
10.8377 1.8020501 0
1.2953584 -20.55731 0
2.0122995 7.3292377 0
-7.070837 -8.1226198 0
-5.6276137 4.2759533 0
8.6467347 8.258503 0
-4.0964546 8.2542659 0
-3.0418086 -0.44140219 0
2.5311 4.3378296 0
0.31336118 -2.5474144 0
1.7968249 14.342869 0
-5.0363378 -2.6663384 0
3.8152781 6.3372755 0
3.7032579 13.668426 0
-2.6309649 -13.726701 0
-0.90124715 -11.217519 0
-5.3659103 -9.6140903 0
8.6734871 2.498913 0
2.4949574 -7.6954541 0
6.2629691 5.2106147 0
-0.90333773 -6.7922799 0
5.8212189 6.213002 0
-7.7729081 -24.609884 0
9.3668598 -0.91012018 0
9.2387939 3.2339271 0
-6.0056088 -8.4812513 0
-0.41282326 -0.99164315 0
-5.3856039 14.604276 0
7.655464 -7.7289925 0
-4.1941513 -5.9560474 0
-7.2071193 -6.7645769 0
3.4065326 -5.8462559 0
-6.3849 3.7162551 0
-5.1466183 -1.2090759 0
-7.5111874 8.9317115 0
-1.0939596 1.0996048 0
-8.0756451 11.908501 0
-3.84174 10.771628 0
-2.630965 13.726701 0
0.30508806 -9.4793039 0
-5.7097788 0.31460753 0
1.0835695 8.5224539 0
-4.6351519 -16.388357 0
6.7075922 -0.18369007 0
-5.3743678 -9.0755686 0
4.6604481 -0.7178423 0
-10.365141 -9.7263196 0
-3.9340347 -5.5680082 0
7.1852268 -6.6414129 0
9.8203573 2.6310676 0
-3.7690497 5.5456181 0
6.4554325 14.640919 0
6.8069164 14.020207 0
-4.8374511 2.3011129 0
-18.760355 0.66395395 0
9.3253393 8.0035963 0
1.9057495 -0.33742956 0
-4.9387831 4.2387245 0
9.1918049 -1.5625905 0
6.3248659 -1.4645529 0
-14.91031 4.8929474 0
-4.1244478 3.1577245 0
-6.3238057 -1.7446724 0
-4.5682695 14.109036 0
0.16316687 -3.671279 0
-6.8350487 -10.617899 0
-0.098026434 -16.228587 0
10.464128 -11.022129 0
11.767325 5.8784082 0
4.2425504 -7.1778513 0
11.73457 3.1414542 0
0.21484973 -5.6460798 0
-3.0628042 -5.0452642 0
-7.7701932 -10.434629 0
-6.4708864 -11.193364 0
-3.7648654 -6.063943 0
1.3733643 7.1868393 0
-4.7336743 -9.1025881 0
0.12788622 10.504216 0
4.927397 4.7759115 0
4.9925001 -5.6332787 0
3.4833996 -1.4059212 0
2.7519212 5.1652541 0
4.2987702 11.090622 0
0.92130915 -2.3921924 0
0.52672412 0.60922632 0
11.386657 8.5703902 0
-6.8350545 10.617888 0
-0.51125751 3.4808854 0
-0.26297613 -4.936685 0
3.4844722 8.5787843 0
-0.47621196 -3.2411378 0
4.9613745 -5.7184854 0
5.6203091 -18.127995 0
-7.9140359 1.0466654 0
9.9581176 -4.6176694 0
2.2301255 -1.3711932 0
8.7034807 -24.422707 0
2.0053489 -3.1740064 0
0.68614784 -5.8932077 0
-13.48588 8.8620192 0
0.19170818 7.1478611 0
-10.93063 -7.4514205 0
-3.8689029 -1.8354568 0
5.7460897 -9.0285957 0
3.336234 -5.8381285 0
1.2244427 3.5057472 0
-3.6207746 -9.4660715 0
-11.963295 3.6860924 0
7.7734046 2.0214803 0
-3.3494794 -4.2241485 0
-2.4342133 15.569379 0
2.3299336 7.7463889 0
-1.766456 -1.9494599 0