# vtk DataFile Version 4.0
hesp visualization file
ASCII
DATASET UNSTRUCTURED_GRID
POINTS 32 double
1.1456848 0.65369736 4
0.25468829 2.1793993 4
0.25468829 3.4329109 4
1.1456848 4.9586129 4
1.6979988 -1.1770589 4
2.1266527 1.7792113 4
2.1266527 3.8330989 4
1.6979988 6.7893692 4
6.0257959 -3.2561309 4
3.818812 0.049747422 4
3.818812 5.5625628 4
6.0257959 8.8684412 4
8.7140746 -3.7047672 4
9.3756803 1.4117838 4
9.3756803 4.2005264 4
8.7140746 9.3170775 4
12.898236 -3.7047672 4
12.23663 1.4117838 4
12.23663 4.2005264 4
12.898236 9.3170775 4
15.586514 -3.2561309 4
17.793498 0.049747422 4
17.793498 5.5625628 4
15.586514 8.8684412 4
19.914311 -1.1770589 4
19.485658 1.7792113 4
19.485658 3.8330989 4
19.914311 6.7893692 4
20.466625 0.65369736 4
21.357622 2.1793993 4
21.357622 3.4329109 4
20.466625 4.9586129 4
CELLS 0 0
CELL_TYPES 0
POINT_DATA 32
SCALARS m double
LOOKUP_TABLE default
1
1
1
1
1
1
1
1
1
1
1
1
1
1
1
1
1
1
1
1
1
1
1
1
1
1
1
1
1
1
1
1
VECTORS v double
-10.628954 -1.3309378 0
-11.984713 -0.26009239 0
-11.984713 0.26009239 0
-10.628954 1.3309378 0
-12.472394 -4.582426 0
-9.656691 -0.17131168 0
-9.656691 0.17131168 0
-12.472394 4.582426 0
-6.2424833 -8.7276949 0
-8.2997104 -3.1872244 0
-8.2997104 3.1872244 0
-6.2424833 8.7276949 0
-3.0705519 -7.7758659 0
-1.4057408 -0.91821437 0
-1.4057408 0.91821437 0
-3.0705519 7.7758659 0
3.0705519 -7.7758659 0
1.4057408 -0.91821437 0
1.4057408 0.91821437 0
3.0705519 7.7758659 0
6.2424833 -8.7276949 0
8.2997104 -3.1872244 0
8.2997104 3.1872244 0
6.2424833 8.7276949 0
12.472394 -4.582426 0
9.656691 -0.17131168 0
9.656691 0.17131168 0
12.472394 4.582426 0
10.628954 -1.3309378 0
11.984713 -0.26009239 0
11.984713 0.26009239 0
10.628954 1.3309378 0
