# vtk DataFile Version 4.0
hesp visualization file
ASCII
DATASET UNSTRUCTURED_GRID
POINTS 32 double
7.3023176 1.1523027 4
7.322767 2.2550654 4
7.322767 3.3572448 4
7.3023176 4.4600076 4
8.4051332 1.1727517 4
8.4136023 2.26351 4
8.4136023 3.3488002 4
8.4051332 4.4395585 4
9.5036658 1.1729135 4
9.4971539 2.2635337 4
9.4971539 3.3487765 4
9.5036658 4.4393968 4
10.321521 1.1535985 4
10.34174 2.2551301 4
10.34174 3.3571801 4
10.321521 4.4587118 4
11.290789 1.1535985 4
11.27057 2.2551301 4
11.27057 3.3571801 4
11.290789 4.4587118 4
12.108644 1.1729135 4
12.115156 2.2635337 4
12.115156 3.3487765 4
12.108644 4.4393968 4
13.207177 1.1727517 4
13.198708 2.26351 4
13.198708 3.3488002 4
13.207177 4.4395585 4
14.309993 1.1523027 4
14.289543 2.2550654 4
14.289543 3.3572448 4
14.309993 4.4600076 4
CELLS 0 0
CELL_TYPES 0
POINT_DATA 32
SCALARS m double
LOOKUP_TABLE default
1
1
1
1
1
1
1
1
1
1
1
1
1
1
1
1
1
1
1
1
1
1
1
1
1
1
1
1
1
1
1
1
VECTORS v double
9.9098573 -0.090510849 0
9.8063759 -0.026775596 0
9.8063759 0.026775596 0
9.9098573 0.090510849 0
9.9752986 -0.19383369 0
9.9679397 -0.035466882 0
9.9679397 0.035466882 0
9.9752986 0.19383369 0
7.9800761 -0.13902271 0
8.7931884 -0.023777711 0
8.7931884 0.023777711 0
7.9800761 0.13902271 0
-7.9511982 -0.073221582 0
-8.8095844 -0.034930332 0
-8.8095844 0.034930332 0
-7.9511982 0.073221582 0
7.9511982 -0.073221582 0
8.8095844 -0.034930332 0
8.8095844 0.034930332 0
7.9511982 0.073221582 0
-7.9800761 -0.13902271 0
-8.7931884 -0.023777711 0
-8.7931884 0.023777711 0
-7.9800761 0.13902271 0
-9.9752986 -0.19383369 0
-9.9679397 -0.035466882 0
-9.9679397 0.035466882 0
-9.9752986 0.19383369 0
-9.9098573 -0.090510849 0
-9.8063759 -0.026775596 0
-9.8063759 0.026775596 0
-9.9098573 0.090510849 0
