# vtk DataFile Version 4.0
hesp visualization file
ASCII
DATASET UNSTRUCTURED_GRID
POINTS 32 double
6.7577789 1.1112178 4
6.7164431 2.2378969 4
6.7164431 3.3744133 4
6.7577789 4.5010925 4
7.9589534 0.94969418 4
7.8582335 2.1639262 4
7.8582335 3.448384 4
7.9589534 4.6626161 4
9.4449094 1.5278857 4
8.9464528 2.3703311 4
8.9464528 3.2419791 4
9.4449094 4.0844245 4
10.361302 0.59067839 4
10.194873 1.9369159 4
10.194873 3.6753943 4
10.361302 5.0216319 4
11.251008 0.59067839 4
11.417437 1.9369159 4
11.417437 3.6753943 4
11.251008 5.0216319 4
12.167401 1.5278857 4
12.665857 2.3703311 4
12.665857 3.2419791 4
12.167401 4.0844245 4
13.653357 0.94969418 4
13.754077 2.1639262 4
13.754077 3.448384 4
13.653357 4.6626161 4
14.854531 1.1112178 4
14.895867 2.2378969 4
14.895867 3.3744133 4
14.854531 4.5010925 4
CELLS 0 0
CELL_TYPES 0
POINT_DATA 32
SCALARS m double
LOOKUP_TABLE default
1
1
1
1
1
1
1
1
1
1
1
1
1
1
1
1
1
1
1
1
1
1
1
1
1
1
1
1
1
1
1
1
VECTORS v double
-10.024413 -0.3287641 0
-10.568204 -0.12656028 0
-10.568204 0.12656028 0
-10.024413 0.3287641 0
-9.1472175 -2.4527355 0
-10.231095 -1.1525856 0
-10.231095 1.1525856 0
-9.1472175 2.4527355 0
-2.967537 -6.4508087 0
-13.239016 -5.1952215 0
-13.239016 5.1952215 0
-2.967537 6.4508087 0
-0.21612285 -8.0371512 0
-5.0309114 -2.9540517 0
-5.0309114 2.9540517 0
-0.21612285 8.0371512 0
0.21612285 -8.0371512 0
5.0309114 -2.9540517 0
5.0309114 2.9540517 0
0.21612285 8.0371512 0
2.967537 -6.4508087 0
13.239016 -5.1952215 0
13.239016 5.1952215 0
2.967537 6.4508087 0
9.1472175 -2.4527355 0
10.231095 -1.1525856 0
10.231095 1.1525856 0
9.1472175 2.4527355 0
10.024413 -0.3287641 0
10.568204 -0.12656028 0
10.568204 0.12656028 0
10.024413 0.3287641 0
