# vtk DataFile Version 4.0
hesp visualization file
ASCII
DATASET UNSTRUCTURED_GRID
POINTS 1250 double
34.694288 5.2295581 4
31.087362 0.27002475 4
34.264324 5.4883643 4
30.421005 2.6057144 4
29.529177 4.9197919 4
30.602812 7.7260888 4
31.049051 7.2191252 4
32.301057 9.0463815 4
30.101179 10.341948 4
30.478269 11.187928 4
29.058857 12.772028 4
32.062248 14.372125 4
32.151447 16.153104 4
31.925251 14.814064 4
30.364191 17.128298 4
30.481132 17.952741 4
30.21859 18.457247 4
30.196573 19.138122 4
31.67801 19.983225 4
30.609856 19.664478 4
32.647917 22.387936 4
33.49647 26.275766 4
36.533317 23.518092 4
31.335408 28.408127 4
32.827147 27.267365 4
30.364098 -9.0559126 4
33.109207 2.1376764 4
31.509163 -1.5491153 4
33.644568 5.5983527 4
35.43222 5.603818 4
29.701386 7.5025975 4
31.203424 6.6464322 4
31.067044 10.537612 4
31.872822 10.230482 4
31.603045 11.229572 4
32.390076 11.67121 4
29.442801 12.735248 4
30.357798 14.92587 4
29.188928 16.623924 4
30.95777 16.559868 4
31.599932 17.971003 4
32.270893 18.237407 4
30.58464 17.582901 4
29.76089 21.392432 4
30.180525 22.010831 4
31.680078 24.231823 4
31.123674 24.028383 4
31.515614 30.729891 4
33.351379 27.219304 4
30.364098 38.239926 4
31.843632 -1.1056189 4
33.654524 4.4229096 4
29.48848 6.4624273 4
32.572558 5.6387719 4
32.718522 4.5307559 4
29.060479 9.063011 4
32.663157 12.387438 4
32.830842 9.77087 4
32.386559 9.7527829 4
31.787575 11.018619 4
30.164835 12.727327 4
33.041449 14.242954 4
33.478418 16.091742 4
32.732778 15.548169 4
31.708225 17.103602 4
32.240823 17.538652 4
31.443522 19.115796 4
31.350244 22.015072 4
32.859813 18.264567 4
31.505688 18.679857 4
32.838913 23.717478 4
35.010411 24.675188 4
31.531761 24.811753 4
33.880025 25.461632 4
31.845225 30.285456 4
31.545422 -2.3148054 4
31.539016 -4.7909375 4
31.584181 3.6454435 4
34.067286 3.7739396 4
28.577119 5.5996203 4
31.350992 9.523077 4
33.435507 8.4606981 4
30.632077 10.092815 4
32.76724 12.668953 4
32.686962 11.2773 4
32.503099 11.108186 4
30.36346 13.04693 4
29.467342 13.992788 4
30.368612 16.129577 4
31.285506 17.308443 4
32.606325 17.850143 4
34.260446 18.414055 4
31.416615 19.506046 4
32.791879 20.551476 4
29.998826 23.793681 4
31.906009 24.336565 4
34.701204 25.914329 4
31.492868 25.510785 4
31.53902 33.974951 4
31.545422 31.49882 4
31.723646 6.9001889 4
31.973339 4.0533127 4
31.857639 0.52486122 4
36.670423 3.8214792 4
31.942478 7.4405929 4
31.208267 4.8849683 4
31.435314 7.8778664 4
33.154694 10.117787 4
32.405771 10.672177 4
32.992706 13.629038 4
31.955177 13.904757 4
33.448162 14.790467 4
33.102803 15.765014 4
32.117053 16.815192 4
32.469881 16.787902 4
32.994059 17.091302 4
32.451604 20.089307 4
31.741446 20.642781 4
31.324815 22.906312 4
31.432828 20.754197 4
30.863996 20.284517 4
33.716564 21.863523 4
31.718186 28.53098 4
32.251548 24.633257 4
35.251797 23.93623 4
30.65992 -2.3708611 4
32.232463 -3.702542 4
35.886787 3.9545608 4
30.454618 8.655053 4
32.90928 7.4243462 4
31.468305 6.3795012 4
34.186489 8.0226707 4
33.912025 9.737331 4
32.583984 10.180156 4
35.342046 9.8961149 4
32.888079 11.688659 4
33.828004 11.907286 4
34.109372 12.120109 4
34.315787 14.416617 4
34.740311 16.585899 4
34.008094 16.658661 4
33.716447 19.041504 4
32.511323 19.425626 4
32.029477 21.245852 4
30.587886 21.542302 4
33.029985 22.055918 4
30.580283 22.87591 4
34.263158 22.431203 4
32.23274 32.886632 4
30.659916 31.554877 4
30.987622 1.6656254 4
36.682331 3.3640581 4
30.138367 1.2128435 4
34.262249 6.0166153 4
30.459671 4.7713439 4
34.368478 7.2196255 4
36.243127 7.4730713 4
33.001555 9.5163882 4
33.76076 10.096788 4
33.691612 11.246839 4
34.481669 12.441089 4
33.397471 14.129456 4
33.562516 14.363347 4
33.949735 13.922935 4
33.730769 17.057056 4
33.703514 17.934969 4
33.115176 20.272946 4
34.81752 20.058763 4
34.255089 21.369535 4
32.701678 21.897481 4
31.090809 22.223791 4
34.19576 23.753479 4
30.014689 27.859942 4
36.621106 25.612323 4
31.084064 27.528099 4
38.470805 -5.8144588 4
33.24682 2.3735027 4
36.071185 1.7088639 4
33.698097 5.9366156 4
35.699703 5.784354 4
34.023263 6.4330128 4
33.753885 8.9575428 4
36.093336 9.4146514 4
34.216325 10.210859 4
34.12275 10.941998 4
34.244849 11.437842 4
34.493303 13.456926 4
36.338215 13.402456 4
35.948038 16.874919 4
34.933188 16.44763 4
34.252146 17.973892 4
34.079608 19.07721 4
36.749104 19.655088 4
35.604311 20.525315 4
33.410884 22.235895 4
36.67977 24.172118 4
33.108198 22.787291 4
36.068312 27.471483 4
33.314851 26.817443 4
38.470805 34.998472 4
32.600236 2.0257319 4
31.804812 1.6220003 4
36.836294 0.97058198 4
36.02486 6.5166825 4
36.804926 5.9043023 4
36.763098 6.4275466 4
34.275763 8.3794791 4
35.96951 11.38859 4
35.22145 11.056699 4
34.727624 12.302369 4
35.089972 12.708861 4
35.503728 13.794878 4
34.176112 16.175767 4
34.527237 14.895466 4
35.844973 17.211484 4
35.028911 17.959584 4
35.030725 18.274323 4
35.916802 17.422405 4
34.111164 21.139622 4
34.877363 21.730169 4
34.475115 21.63228 4
37.477483 23.859973 4
37.105261 28.253357 4
31.804791 27.561984 4
31.828409 26.226373 4
32.273352 0.83946772 4
34.082977 -2.801828 4
35.8239 2.375886 4
35.816134 4.4321753 4
36.413003 7.2006167 4
34.805269 9.4545889 4
36.635049 8.1747608 4
34.913399 9.7275733 4
36.270671 10.456339 4
36.405617 11.155067 4
36.704891 11.859849 4
36.068119 12.539224 4
34.404814 13.887766 4
35.291557 16.152406 4
36.254591 16.830312 4
37.476296 17.245462 4
35.578346 18.478453 4
34.835265 19.058109 4
36.724741 20.799413 4
37.113677 23.172285 4
36.100272 21.93279 4
35.951394 24.532954 4
35.814948 26.795996 4
34.082978 31.985838 4
32.244797 28.269152 4
30.121846 0.051839661 4
35.477583 2.3729282 4
37.229864 5.468871 4
34.245561 2.5144222 4
39.123342 5.483419 4
36.302402 6.9379545 4
36.118372 8.3272869 4
35.94631 10.440559 4
36.906108 9.8888186 4
37.097447 11.236294 4
36.494839 12.581451 4
36.638622 13.912664 4
37.847749 14.705266 4
36.65909 16.260963 4
37.027818 16.914203 4
36.365493 17.984586 4
36.469192 18.987024 4
36.208494 19.23051 4
36.366808 20.280411 4
36.560202 22.157768 4
37.247195 24.869414 4
34.393988 26.989258 4
35.277353 24.413592 4
35.435387 26.799858 4
30.110325 29.227506 4
32.410788 -0.45958035 4
35.170732 0.045738758 4
37.973448 8.3929931 4
34.838655 3.6898864 4
34.745998 6.8836984 4
37.14285 6.5949066 4
36.858621 7.4931146 4
36.56087 8.9789695 4
37.479906 10.094702 4
37.47974 11.224629 4
37.484634 12.270496 4
37.38632 12.772059 4
37.853589 13.900801 4
37.262971 16.698715 4
37.479641 16.836176 4
37.479858 17.959339 4
37.479919 19.08812 4
36.666515 20.171913 4
36.940773 21.589116 4
39.182032 22.873916 4
36.391561 21.520837 4
34.819967 25.518936 4
38.036705 20.900929 4
35.176532 29.158323 4
32.410827 29.643645 4
33.092261 1.142503 4
34.181529 0.5935267 4
38.922723 2.8518151 4
39.285898 5.731639 4
36.124165 5.7492911 4
37.817773 6.9200302 4
38.852068 8.676165 4
37.684054 8.980963 4
38.436893 10.107099 4
38.437664 11.22462 4
38.43235 12.400205 4
37.719418 13.462349 4
36.777244 14.821356 4
37.689512 15.598918 4
38.437579 16.837498 4
38.437657 17.959393 4
38.437082 19.077704 4
37.684057 20.204263 4
38.85399 20.507631 4
37.747274 22.521451 4
37.511479 22.975379 4
37.723929 23.395784 4
38.903689 26.295176 4
34.215265 28.62308 4
33.092281 28.041527 4
33.849018 -0.099107567 4
37.426376 2.0965817 4
35.936039 2.0167456 4
36.590697 4.4064794 4
38.336506 4.8933524 4
38.270089 6.3014836 4
37.882892 7.8677837 4
38.806161 8.9752086 4
38.806447 10.102196 4
38.806445 11.224619 4
38.806464 12.344365 4
38.862487 13.214387 4
38.300476 13.845893 4
38.865666 15.976128 4
38.806446 16.836852 4
38.806445 17.959393 4
38.806447 19.081817 4
38.806155 20.206107 4
37.881998 21.314797 4
38.77121 22.314105 4
37.891744 23.805326 4
36.114878 24.862962 4
35.954968 27.151984 4
37.396824 27.050977 4
33.84962 29.275282 4
36.962347 0.056266637 4
35.647032 1.3381778 4
36.33764 2.5179828 4
37.295274 4.3593992 4
39.159747 3.8259736 4
39.788072 7.7546979 4
39.011766 7.8547502 4
39.765224 8.9820326 4
39.765421 10.102134 4
39.765422 11.224621 4
39.765414 12.34891 4
39.703464 13.642795 4
40.46058 15.277194 4
39.700038 15.536837 4
39.76542 16.836981 4
39.765422 17.959392 4
39.765421 19.081879 4
39.765231 20.203807 4
39.012017 21.329724 4
39.749294 21.420391 4
39.011379 23.749361 4
37.23932 24.276929 4
36.344331 26.674213 4
35.658102 27.875169 4
36.992971 29.058257 4
37.552905 0.097178855 4
37.472887 2.7917497 4
38.623491 5.8946527 4
39.127625 3.5004506 4
40.103249 7.0025469 4
39.216631 6.7331566 4
40.132866 7.8546491 4
40.133 8.9798739 4
40.133 10.102158 4
40.133 11.22462 4
40.133 12.347077 4
40.133156 13.46109 4
39.241458 14.482991 4
40.133139 15.72235 4
40.133 16.836923 4
40.133 17.959393 4
40.133 19.081855 4
40.133 20.204147 4
40.13296 21.329575 4
39.212994 22.445162 4
39.445488 24.387965 4
39.010118 25.571748 4
39.274863 24.108784 4
37.172546 26.378202 4
37.532267 29.156192 4
37.581444 1.1282693 4
38.037714 2.6210359 4
42.108118 2.9966473 4
42.005684 5.7415081 4
39.841638 5.3263106 4
40.880002 6.7609456 4
41.093061 7.8596401 4
41.093196 8.9795787 4
41.093198 10.102158 4
41.093198 11.22462 4
41.093198 12.347086 4
41.093128 13.475155 4
40.339305 14.66726 4
41.093043 15.708832 4
41.093198 16.836935 4
41.093198 17.959393 4
41.093198 19.081855 4
41.093196 20.20443 4
41.093064 21.324131 4
40.255365 22.381457 4
40.64597 22.484115 4
41.941632 23.959191 4
42.047825 26.177813 4
38.056098 26.591085 4
37.581277 28.055712 4
38.704328 1.1283457 4
38.660429 1.9770044 4
38.801098 2.4747767 4
39.619596 4.397135 4
40.524452 6.1910933 4
41.459798 6.7507521 4
41.459464 7.8562729 4
41.459463 8.9796964 4
41.459463 10.102158 4
41.459463 11.22462 4
41.459463 12.347082 4
41.459463 13.469549 4
41.480946 14.428802 4
41.459463 15.71447 4
41.459463 16.836931 4
41.459463 17.959393 4
41.459463 19.081855 4
41.459463 20.204317 4
41.459464 21.327807 4
41.45982 22.433124 4
41.746332 23.179219 4
39.618845 24.782012 4
38.898991 26.754125 4
38.627074 27.128056 4
38.704326 28.05567 4
39.77545 1.1145394 4
40.398972 0.40679013 4
39.826488 3.3669405 4
[...]
POINT_DATA 1250
SCALARS m double
LOOKUP_TABLE default
1
1
1
1
1
1
1
1
1
1
1
1
1
1
1
1
1
1
1
1
1
1
1
1
1
1
1
1
1
1
1
1
1
1
1
1
1
1
1
1
1
1
1
1
1
1
1
1
1
1
1
1
1
1
1
1
1
1
1
1
1
1
1
1
1
1
1
1
1
1
1
1
1
1
1
1
1
1
1
1
1
1
1
1
1
1
1
1
1
1
1
1
1
1
1
1
1
1
1
1
1
1
1
1
1
1
1
1
1
1
1
1
1
1
1
1
1
1
1
1
1
1
1
1
1
1
1
1
1
1
1
1
1
1
1
1
1
1
1
1
1
1
1
1
1
1
1
1
1
1
1
1
1
1
1
1
1
1
1
1
1
1
1
1
1
1
1
1
1
1
1
1
1
1
1
1
1
1
1
1
1
1
1
1
1
1
1
1
1
1
1
1
1
1
1
1
1
1
1
1
1
1
1
1
1
1
1
1
1
1
1
1
1
1
1
1
1
1
1
1
1
1
1
1
1
1
1
1
1
1
1
1
1
1
1
1
1
1
1
1
1
1
1
1
1
1
1
1
1
1
1
1
1
1
1
1
1
1
1
1
1
1
1
1
1
1
1
1
1
1
1
1
1
1
1
1
1
1
1
1
1
1
1
1
1
1
1
1
1
1
1
1
1
1
1
1
1
1
1
1
1
1
1
1
1
1
1
1
1
1
1
1
1
1
1
1
1
1
1
1
1
1
1
1
1
1
1
1
1
1
1
1
1
1
1
1
1
1
1
1
1
1
1
1
1
1
1
1
1
1
1
1
1
1
1
1
1
1
1
1
1
1
1
1
1
1
1
1
1
1
1
1
1
1
1
1
1
1
1
1
1
1
1
1
1
1
1
1
1
1
1
1
1
1
1
1
1
1
1
1
1
1
1
1
1
1
1
1
1
1
1
1
1
1
1
1
1
1
1
1
1
1
1
1
1
1
1
1
1
1
1
1
1
1
1
1
1
1
1
1
1
1
1
1
1
1
1
1
1
1
1
1
1
1
1
1
1
1
1
1
1
1
1
1
1
1
1
1
1
1
1
1
1
1
1
1
1
1
1
1
1
1
1
1
1
1
1
1
1
1
1
1
1
1
1
1
1
1
1
1
1
1
1
1
1
1
1
1
1
1
1
1
1
1
1
1
1
1
1
1
1
1
1
1
1
1
1
1
1
1
1
1
1
1
1
1
1
1
1
1
1
1
1
1
1
1
1
1
1
1
1
1
1
1
1
1
1
1
1
1
1
1
1
1
1
1
1
1
1
1
1
1
1
1
1
1
1
1
1
1
1
1
1
1
1
1
1
1
1
1
1
1
1
1
1
1
1
1
1
1
1
1
1
1
1
1
1
1
1
1
1
1
1
1
1
1
1
1
1
1
1
1
1
1
1
1
1
1
1
1
1
1
1
1
1
1
1
1
1
1
1
1
1
1
1
1
1
1
1
1
1
1
1
1
1
1
1
1
1
1
1
1
1
1
1
1
1
1
1
1
1
1
1
1
1
1
1
1
1
1
1
1
1
1
1
1
1
1
1
1
1
1
1
1
1
1
1
1
1
1
1
1
1
1
1
1
1
1
1
1
1
1
1
1
1
1
1
1
1
1
1
1
1
1
1
1
1
1
1
1
1
1
1
1
1
1
1
1
1
1
1
1
1
1
1
1
1
1
1
1
1
1
1
1
1
1
1
1
1
1
1
1
1
1
1
1
1
1
1
1
1
1
1
1
1
1
1
1
1
1
1
1
1
1
1
1
1
1
1
1
1
1
1
1
1
1
1
1
1
1
1
1
1
1
1
1
1
1
1
1
1
1
1
1
1
1
1
1
1
1
1
1
1
1
1
1
1
1
1
1
1
1
1
1
1
1
1
1
1
1
1
1
1
1
1
1
1
1
1
1
1
1
1
1
1
1
1
1
1
1
1
1
1
1
1
1
1
1
1
1
1
1
1
1
1
1
1
1
1
1
1
1
1
1
1
1
1
1
1
1
1
1
1
1
1
1
1
1
1
1
1
1
1
1
1
1
1
1
1
1
1
1
1
1
1
1
1
1
1
1
1
1
1
1
1
1
1
1
1
1
1
1
1
1
1
1
1
1
1
1
1
1
1
1
1
1
1
1
1
1
1
1
1
1
1
1
1
1
1
1
1
1
1
1
1
1
1
1
1
1
1
1
1
1
1
1
1
1
1
1
1
1
1
1
1
1
1
1
1
1
1
1
1
1
1
1
1
1
1
1
1
1
1
1
1
1
1
1
1
1
1
1
1
1
1
1
1
1
1
1
1
1
1
1
1
1
1
1
1
1
1
1
1
1
1
1
1
1
1
1
1
1
1
1
1
1
1
1
1
1
1
1
1
1
1
1
1
1
1
1
1
1
1
1
1
1
1
1
1
1
1
1
1
1
1
1
1
1
1
1
1
1
1
1
1
1
1
1
1
1
1
1
1
1
1
1
1
1
1
1
1
1
1
1
1
1
1
1
1
1
1
1
1
1
1
1
1
1
1
1
1
1
1
1
1
1
1
1
1
1
1
1
1
1
1
1
1
1
1
1
1
1
1
1
1
1
1
1
1
1
1
1
1
1
1
1
1
1
1
1
1
1
1
1
1
1
1
1
1
1
1
1
1
1
1
1
1
1
1
1
1
1
1
1
1
1
1
1
1
1
1
1
1
1
1
1
1
1
1
1
1
1
1
1
1
1
1
1
1
1
1
1
1
1
1
1
1
1
1
1
1
1
1
1
1
1
1
1
1
1
1
1
1
1
1
1
1
1
1
1
1
1
1
1
1
1
1
1
1
1
VECTORS v double
3.5236939 7.5491146 0
4.6863328 -10.073241 0
4.3217998 3.5572037 0
-7.6362475 -7.0268324 0
-3.3959198 -4.541893 0
-2.7584177 1.9463646 0
-5.7805844 -4.9949922 0
9.8056432 0.15533277 0
-1.1959087 -0.41238048 0
9.9566884 -0.92569442 0
-2.3883038 -2.0517307 0
10.491364 -4.5668232 0
-2.064479 6.6679971 0
6.4744088 4.6617076 0
7.1604712 6.9119446 0
10.073355 -0.12159167 0
-7.9278017 -9.7640761 0
1.8048275 -7.1229743 0
2.5153239 1.5495177 0
3.1731574 -4.7651365 0
-6.6706656 -4.3087762 0
7.7416788 8.4503883 0
14.216521 -7.3758656 0
6.7772821 7.9329808 0
-11.623463 6.9748962 0
2.6346592 -13.726701 0
-12.498636 -3.6976126 0
5.4480875 -9.7689261 0
8.637251 8.4513332 0
12.082496 -1.2854968 0
-10.768391 1.1067225 0
2.9147936 -2.6437277 0
-9.2968706 8.2638065 0
10.204627 -0.37233617 0
9.4676132 0.63450596 0
9.4603864 -3.7106585 0
-5.9928892 -1.9691269 0
5.6654656 1.2726243 0
-7.8809424 3.7661597 0
-7.3693899 -6.5674783 0
9.9522632 0.1397387 0
1.292463 -5.45125 0
-2.7348959 -13.250695 0
11.824879 -3.9497005 0
-7.9658394 -2.5087531 0
5.8370927 9.7048024 0
12.683017 6.0852894 0
5.4624464 9.7639722 0
-2.4136734 8.4700077 0
2.6346593 13.726701 0
0.16814607 -9.2314828 0
8.2765766 0.88253701 0
-9.9835476 1.1893656 0
2.6469081 0.55922773 0
12.83545 1.3955255 0
-11.527408 2.8359921 0
3.3016259 4.9296698 0
-1.8222517 10.118707 0
4.1602278 -5.6353887 0
1.1890198 -2.6481437 0
-9.7513564 2.1912768 0
-3.2673029 -4.1321467 0
12.732422 -5.8019646 0
-1.8892961 10.680863 0
7.6814895 6.0255452 0
8.2704044 1.5131868 0
-10.372124 0.32140395 0
-3.7492919 -4.0949038 0
14.279044 5.1035827 0
6.6278068 -10.622173 0
10.082932 0.45119465 0
8.3412362 3.5828674 0
-0.22240333 5.4101103 0
6.4858176 0.67893847 0
0.17430055 9.205684 0
-0.50505346 -3.6790423 0
6.8351627 -10.619163 0
-1.3734823 9.2565119 0
5.973573 -1.0620106 0
-2.5901105 -6.0277079 0
1.1340721 9.9216328 0
2.4108182 -5.5420489 0
-8.5173962 5.3269296 0
0.12749153 16.063888 0
2.8745937 10.374939 0
-6.4545651 5.594119 0
-9.9748037 -1.9734969 0
-9.8323906 -1.9165354 0
-9.8560148 1.7120563 0
-15.012669 0.68257153 0
-8.1837081 -9.040084 0
3.4797662 -4.115913 0
0.39477355 6.0961415 0
-7.7414432 15.463793 0
3.3319141 6.4605055 0
-0.40746276 -1.6471229 0
12.4667 4.3742443 0
-1.9858008 -9.4292273 0
6.8351691 10.619168 0
-0.50503646 3.6790779 0
-14.90706 -6.4909743 0
3.9258933 -2.5776129 0
9.9135749 -5.8128836 0
6.689364 4.7475136 0
-6.1879073 9.7311088 0
1.177368 -12.097737 0
-9.1373754 -5.3427959 0
4.2259304 12.966023 0
-5.0409137 -12.489023 0
-6.4102445 -3.1202481 0
-6.8811423 12.315836 0
11.415538 10.208562 0
8.461171 1.5979032 0
-10.09375 3.6754509 0
-5.7086306 6.0450632 0
-2.9436807 -0.42531271 0
-8.4824263 -2.7306004 0
-8.0443454 2.2630121 0
-6.3761936 7.146666 0
-1.8375197 -9.7422415 0
-6.2984963 -10.272311 0
-8.7591594 -7.1629461 0
8.3315019 4.424875 0
8.0038051 -4.7869481 0
5.711699 -6.6233199 0
-1.1141939 -6.3284412 0
-1.9961143 -10.926423 0
-7.9272635 -10.280519 0
-5.4853081 18.883666 0
-11.789786 5.0710435 0
-3.4352315 -5.5708985 0
6.0720609 -12.232795 0
7.9027808 -6.490964 0
-9.9082043 0.96492495 0
-3.8647286 -9.9643906 0
-5.6865853 -5.6103244 0
2.0316909 -9.2102623 0
3.1306412 -8.9039083 0
3.3263049 -17.498057 0
11.660186 3.2348778 0
-0.13842872 0.032495499 0
-9.864468 -1.609515 0
-2.9071412 -6.4691195 0
-7.8430302 2.8793525 0
-10.00645 -5.0564113 0
7.0315494 3.5808994 0
4.8981108 9.8069245 0
-10.309672 -7.697829 0
-1.9955259 10.92659 0
-1.1142086 6.3284668 0
-5.8249359 -5.1343549 0
4.4637169 -6.2294634 0
-6.3998814 -6.8893295 0
6.1799849 6.2797699 0
-7.2335845 -8.8202271 0
1.0806047 1.7090341 0
9.9766815 1.8662744 0
-6.29969 8.2454064 0
-7.827092 8.3642986 0
-10.755524 0.95996971 0
-1.5982354 -0.79007871 0
-2.030289 -3.5913255 0
11.33387 9.7983586 0
-1.1383008 -12.463458 0
-9.4514814 3.4061864 0
-9.9701771 -0.95935371 0
2.2405083 1.1349629 0
15.646695 0.23140505 0
-6.7762953 -3.9875894 0
-9.5929993 -6.4588304 0
-13.178716 4.9089314 0
3.9710863 -3.9629667 0
-6.9073271 6.3488984 0
1.8693393 -3.4140148 0
-5.0742325 5.2896131 0
4.8370531 -9.9977527 0
-2.9043482 -0.31011901 0
1.6952705 -3.5506517 0
-0.96166412 -2.2007506 0
9.0660295 -3.8486245 0
-8.4607197 2.4448535 0
-5.4772117 6.4772253 0
2.2606953 8.8536455 0
7.9064088 5.6189891 0
0.8641295 -19.485056 0
2.5796038 2.6684323 0
-2.1459822 9.470309 0
-3.9353268 -8.135584 0
-9.8009113 5.9003525 0
-4.1430108 -9.5434154 0
9.9693697 0.85716198 0
10.125871 1.1838384 0
13.954695 -0.99632764 0
-6.7111343 2.2592882 0
3.6124783 -3.4440937 0
-3.6867163 13.714603 0
-0.7790048 7.9407537 0
1.6984788 3.4955003 0
-5.2233574 -2.0150814 0
4.8370532 9.9977527 0
-1.2773253 -6.4968363 0
-9.8553699 -1.5939783 0
-4.1687747 -11.996355 0
-3.7228397 10.137594 0
2.6730973 -2.679605 0
-7.7138781 -8.1581639 0
-1.7967118 10.528258 0
-8.4488212 7.1030506 0
-9.1815186 17.623164 0
-13.927385 14.348773 0
-9.3160713 3.9596224 0
-4.1405673 5.4309835 0
-5.4505979 7.1913673 0
-6.7368935 -6.3638865 0
3.6425532 -0.43275044 0
-9.9868357 0.038194785 0
-8.5662674 -13.462082 0
1.8363195 0.26029355 0
-12.449638 -5.483211 0
1.527049 0.1696547 0
2.2462264 -6.777219 0
3.6968969 -4.344311 0
-1.4071947 12.278261 0
-9.8605995 1.6035594 0
-4.3224777 2.9133952 0
1.4814495 -1.2145979 0
-3.933265 -8.2576468 0
-0.23581018 -0.50383873 0
-2.6294629 0.46174158 0
4.8033601 -7.3673403 0
-7.6734558 13.757366 0
-2.4502828 4.9571646 0
-9.9929206 -1.776571 0
-6.886456 8.0098378 0
3.6682295 -3.2322388 0
5.0194398 -9.727545 0
1.013076 -9.9659685 0
-9.6300661 -3.1073424 0
-9.5926602 3.2358438 0
8.5379542 -0.84333259 0
17.752005 -10.043827 0
-5.3547094 -8.405372 0
-14.436297 -2.3439795 0
-1.2410721 -6.8769233 0
2.9564206 -4.1146031 0
-5.871624 4.5741951 0
-4.6898427 -5.2334812 0
-0.75845022 0.25545923 0
-3.9332627 8.2576411 0
1.3273608 0.72694184 0
9.7951849 -4.1713471 0
3.1130206 5.3888558 0
2.3118447 2.2913287 0
-7.3162597 -7.2863891 0
10.284326 4.1585652 0
-5.3222958 -7.1494941 0
-0.054715877 -8.8104327 0
10.744075 9.0697203 0
5.9985383 -6.3150891 0
9.8155946 0.3137159 0
-5.7795999 6.7065263 0
1.4249133 9.4785145 0
5.7730171 -9.4374267 0
-3.4361822 6.245911 0
-2.9796623 11.903 0
-9.8007003 0.56824161 0
2.6251721 -10.444307 0
-8.450921 1.946021 0
-9.3406424 2.2774271 0
3.0099325 8.1598293 0
-0.13156341 7.1855524 0
-6.7199418 8.5243723 0
-6.9619198 2.5351009 0
2.731106 -5.4837851 0
0.086480578 5.0187461 0
-7.9818262 -7.190816 0
-9.7688961 -5.4750665 0
9.9286657 6.3442551 0
-10.837698 0.1418378 0
-9.7903867 7.2709313 0
-7.3342278 5.1601729 0
-8.6407451 3.009853 0
-10.00892 -0.0054700436 0
-9.9997981 -0.16272122 0
-10.033229 0.0010816658 0
-9.8848498 -1.6650638 0
0.26309065 -8.5132945 0
-9.7837099 3.1633784 0
9.0704141 -0.55338431 0
-9.1547013 0.53826132 0
-9.9995715 -0.0047284283 0
-9.996697 0.13613591 0
6.9445897 -5.2954987 0
-6.7463737 -4.9543838 0
13.113848 -1.3959347 0
-13.735935 -9.9944816 0
-10.974319 0.10956176 0
10.133024 -4.915776 0
-9.7393112 5.5713392 0
-7.9815861 7.1912025 0
-9.9972118 0.09897293 0
-6.23731 -8.6226858 0
3.7034461 1.0034767 0
-7.9344005 3.7657101 0
-5.621867 -1.1126473 0
10.170083 0.22956303 0
6.418175 6.2803545 0
-9.9948411 0.0050548483 0
10.031519 0.13171679 0
10.038057 -4.306527e-05 0
9.9111746 1.3939381 0
-8.7533724 -3.6767906 0
-9.9125655 1.2771643 0
-9.9360456 -1.263877 0
10.035925 0.014708743 0
10.037891 -2.4487489e-05 0
10.033214 -0.11069269 0
-9.9953622 0.0044717523 0
6.4280853 -6.3095547 0
4.5484592 5.9619791 0
5.2023376 -5.2970729 0
-15.125469 -1.7975694 0
3.6129142 -1.2909066 0
-5.9579092 8.8596767 0
-9.9973237 -0.099819922 0
-11.479791 -4.9442201 0
-9.6328283 -0.37435644 0
-3.7580511 -9.7015206 0
2.3631752 0.16545783 0
3.4688641 -10.618525 0
-11.09983 6.80167 0
-10.078019 0.20044861 0
-10.037398 -0.003050059 0
-10.036794 0.0012380005 0
-10.037118 -3.6055507e-05 0
-10.033814 -0.054705053 0
-8.6173125 -5.5800479 0
9.5484099 -3.3753556 0
-8.5377155 5.7239128 0
-10.037061 -0.0020733649 0
-10.037128 1.0231959e-05 0
-10.036865 -0.0011808404 0
-10.036397 -0.027026651 0
-10.112212 -0.31332878 0
-3.0268863 -9.1797838 0
1.015339 4.4119051 0
-5.2700559 5.0444054 0
-3.1508439 9.7945693 0
-10.147408 -0.26177211 0
-11.476868 4.9115918 0
-4.5506389 -7.0616326 0
-8.8951236 -3.3971342 0
-9.724249 -2.5389374 0
-9.079799 -5.1357391 0
-3.798561 0.12579688 0
3.3707166 8.0854551 0
-9.9610581 -0.058319058 0
10.0364 0.063171853 0
10.039537 -0.00064298914 0
10.039529 2.2262748e-05 0
10.039304 0.048440924 0
8.5660688 4.5964538 0
8.1627241 5.7896337 0
8.4861503 -4.7146634 0
10.039459 0.0012994466 0
10.039527 -1.4974884e-05 0
10.039535 0.00065048593 0
10.036615 -0.014644243 0
-9.9505093 0.073156107 0
3.0520496 -8.169169 0
0.88500743 5.5121555 0
-8.9812306 3.2476439 0
-9.6286916 2.6138483 0
-8.8574797 3.5677282 0
-4.2730614 6.5365155 0
-1.6352984 -7.0148588 0
0.16125599 5.1914513 0
-3.5925568 1.6619104 0
-6.7260151 -10.291186 0
-10.454672 7.3521662 0
-9.9728982 -0.020914236 0
-10.051561 -0.077126855 0
-10.037617 0.0040362365 0
-10.037686 -2.6965377e-06 0
-10.037685 -2.5429007e-07 0
-10.03767 6.6328041e-06 0
-10.010196 -0.17912899 0
-9.6246198 -1.318142 0
-10.004099 0.14351322 0
-10.037674 -0.00014675869 0
-10.037686 -1.9139596e-07 0
-10.037685 2.2564767e-06 0
-10.037622 -0.0037293312 0
-10.036538 0.075416121 0
-10.070925 -0.0078912821 0
-3.8673597 9.8995577 0
-7.2719208 -0.2090681 0
-2.6521195 -1.3139565 0
-2.7511661 -5.4757687 0
-1.8314218 7.5515506 0
-10.007005 0.0083867268 0
0.37939432 8.4396078 0
0.77301683 -8.1593052 0
6.1655462 3.3773569 0
6.690789 -8.7215409 0
3.9730612 0.75982934 0
10.039163 0.056767508 0
10.040924 -0.0031202004 0
10.040937 -1.3128751e-07 0
10.040937 1.1818869e-07 0
10.040936 9.2809125e-05 0
10.039431 0.14866896 0
-9.9801602 0.83767958 0
10.036079 -0.15025865 0
10.040932 0.00012127982 0
10.040937 -1.6501147e-07 0
10.040937 1.2355675e-07 0
10.040924 0.0029875071 0
10.039283 -0.062771296 0
-14.702866 -4.1670654 0
-2.7998071 -7.7419377 0
5.5435444 2.6192675 0
-2.0733826 9.568559 0
0.81820064 -7.8273996 0
-10.025632 -0.0060349527 0
-9.9998882 0.010868143 0
-11.455178 -8.7208837 0
-8.1665081 -0.044696042 0
-10.025569 -0.39106206 0
-10.255478 5.5487919 0
-9.9976827 0.34280571 0
-10.038866 -0.02054559 0
-10.03893 -1.0235415e-05 0
-10.038931 1.292717e-08 0
-10.038931 -1.4955021e-08 0
-10.038929 -5.4423999e-06 0
-10.038862 0.0006871203 0
-9.4747017 -3.5368931 0
-10.03889 -0.00031503705 0
-10.038932 -4.4296538e-06 0
-10.038931 1.2048897e-08 0
-10.038931 -1.2714418e-08 0
-10.03893 8.1562065e-06 0
-10.038838 0.021949374 0
-9.993328 -0.34464896 0
0.5895102 -8.942645 0
-10.042873 0.32247496 0
-6.0677286 1.4534486 0
-13.011451 7.3462246 0
-9.9999675 -0.01060107 0
-10.623365 -0.20681596 0
-6.4494914 -10.208462 0
-10.006245 -0.00025696928 0
-9.8469285 1.9463504 0
-7.6985086 -7.1209101 0
10.035136 -0.27014498 0
10.042106 0.016911987 0
10.042137 -2.3134063e-07 0
10.042137 1.2070912e-08 0
10.042137 -1.1295411e-10 0
10.042137 2.8070329e-06 0
10.042123 -9.3905848e-06 0
9.4787318 2.8680414 0
10.042146 -8.5936397e-05 0
10.042137 3.4664247e-06 0
10.042137 -1.354339e-10 0
10.042137 -1.1865165e-08 0
10.042137 3.2549075e-07 0
10.042119 -0.018118889 0
10.035945 0.27408117 0
-4.0327464 6.5004972 0
-9.8510538 -1.9103377 0
-10.002481 0.0018124133 0
-6.7161706 10.487688 0
-10.19197 0.050666954 0
-10.007479 0.0081152261 0
-10.013811 0.052113838 0
-9.9884365 -0.040694311 0
-4.2596283 -2.5994099 0
7.5970529 5.5360655 0
-10.039363 -0.02086135 0
-10.040259 9.3550353e-05 0
-10.040263 -1.3420413e-07 0
-10.040262 -1.4470456e-09 0
-10.040262 -2.9661184e-11 0
-10.040263 6.5802405e-08 0
-10.040252 -2.063914e-05 0
-10.027588 0.0061307802 0
-10.040279 -2.534684e-05 0
-10.040262 -2.4757577e-07 0
-10.040262 -2.8201037e-11 0
-10.040262 1.560568e-09 0
-10.040263 1.4156369e-07 0
-10.04026 -6.2772082e-05 0
-10.040102 0.017606814 0
-9.7163771 2.4859582 0
-3.52589 1.2522895 0
-9.985713 0.048161678 0
-10.012778 -0.04617323 0
-10.00755 -0.0082273691 0
-10.000032 0.0102797 0
-10.001256 0.003376388 0
-10.227424 6.603208 0
6.9925816 6.2169028 0
-10.052279 0.25625012 0
10.041676 0.012152702 0
10.042774 -3.8505234e-05 0
10.042775 -6.7988552e-09 0
10.042775 -1.964777e-12 0
10.042775 -5.2076488e-13 0
10.042775 4.8267779e-10 0
10.042776 -3.7983637e-06 0
10.042783 1.606154e-05 0
10.042775 -3.5052383e-06 0
10.042775 3.122762e-11 0
10.042775 8.76852e-14 0
10.042775 2.4802643e-13 0
10.042775 1.0523559e-08 0
10.042775 -4.9048085e-07 0
10.042753 -0.013722791 0
9.7469042 -2.2236413 0
7.1183078 -6.1267984 0
-8.4364172 -6.9502237 0
-10.001125 -0.0027834848 0
-10.000032 -0.010278322 0
-10.000002 0.010264876 0
-10.000058 2.4888559e-06 0
-10.000996 0.00023968528 0
-10.064375 0.18016141 0
-10.014417 -0.51819305 0
-10.041356 -0.00020725684 0
-10.041286 -2.0836808e-06 0
-10.041285 -1.2980928e-09 0
-10.041285 3.3945805e-12 0
-10.041285 1.3683835e-13 0
-10.041285 2.9261733e-11 0
-10.041285 -1.5161302e-07 0
-10.041285 2.5114752e-07 0
-10.041285 -2.5388099e-08 0
-10.041285 2.8528234e-11 0
-10.041285 4.6487634e-13 0
-10.041285 -1.5250185e-14 0
-10.041285 1.740009e-09 0
-10.041285 6.1310146e-07 0
-10.041299 0.00017166195 0
-10.025792 0.57043616 0
-10.067354 -0.19446959 0
-10.00086 -0.00022706991 0
-10.00005 3.3135855e-06 0
-10.000001 -0.010264565 0
-9.9999992 0.010262523 0
-10 -4.4786298e-05 0
-10.000015 2.0641202e-05 0
-10.001757 0.0032467213 0
10.028335 0.34630275 0
10.039645 0.00017372654 0
10.039651 3.1825943e-07 0
10.039652 4.460787e-11 0
10.039652 5.3823436e-14 0
10.039652 -1.3150541e-14 0
10.039652 7.5917655e-13 0
10.039652 -1.5407345e-11 0
10.039652 3.0344934e-11 0
10.039652 -1.6457394e-11 0
10.039652 7.3154019e-13 0
10.039652 3.3634052e-14 0
10.039652 -1.7743585e-14 0
10.039652 -1.5959988e-11 0
10.039652 -2.5410378e-07 0
10.039645 -0.00013057114 0
10.027598 -0.35977183 0
-10.002024 -0.0038307587 0
-10.000015 -2.2249099e-05 0
-9.9999999 4.4921795e-05 0
-9.9999992 -0.010262523 0
-9.9999638 0.010265607 0
-9.999955 -4.4991978e-05 0
-9.9999562 1.9299218e-06 0
-10.000019 8.5576504e-05 0
-10.041382 0.0011702547 0
-10.041613 -3.1697983e-06 0
-10.04161 -3.2775114e-08 0
-10.04161 -1.8340562e-11 0
-10.04161 -2.5914088e-14 0
-10.04161 -5.6830917e-15 0
-10.04161 9.4613626e-14 0
-10.04161 -4.2184032e-13 0
-10.04161 1.312523e-12 0
-10.04161 -8.4452954e-13 0
-10.04161 6.1965876e-14 0
-10.04161 6.0795581e-15 0
-10.04161 1.8863547e-14 0
-10.04161 1.5588213e-11 0
-10.04161 3.4117333e-08 0
-10.041614 4.1976094e-06 0
-10.041374 -0.0012113462 0
-10.000022 -8.7380116e-05 0
-9.9999563 -2.0588457e-06 0
-9.999955 4.4991982e-05 0
-9.9999638 -0.010265607 0
-10.009698 0.0096977204 0
-10.010266 -3.6248076e-05 0
-10.010263 -8.3411346e-07 0
-10.010266 1.9361854e-06 0
-10.010277 1.9288932e-06 0
-10.01028 -2.1422779e-08 0
-10.01028 -1.0939663e-11 0
-10.01028 2.1058453e-15 0
-10.01028 6.6516345e-15 0
-10.01028 -5.725434e-15 0
-10.01028 -9.4222674e-17 0
-10.01028 5.3795937e-15 0
-10.01028 -5.5542097e-15 0
-10.01028 -2.803729e-16 0
-10.01028 1.2327563e-16 0
-10.01028 5.9231082e-15 0
-10.01028 -5.9322329e-15 0
-10.01028 1.5311225e-14 0
-10.01028 7.8335623e-12 0
-10.01028 2.2228231e-08 0
-10.010277 -1.9212487e-06 0
-10.010266 -1.9553717e-06 0
-10.010263 8.3411428e-07 0
-10.010266 3.6248076e-05 0
-10.009698 -0.0096977204 0
-3.5164233 7.4453101 0
-5.7385762 -5.3958005 0
10.455895 1.7660173 0
4.8542397 -2.0720265 0
12.867133 1.3651058 0
-1.8220069 -2.5438572 0
5.4524288 -7.6897059 0
1.4042242 2.3773471 0
1.2841337 8.5939167 0
-9.9207329 1.1584944 0
8.8041823 -4.7843405 0
-17.316883 -1.8504733 0
3.8254571 8.1810647 0
-7.6557478 -2.6542396 0
-7.3409193 -7.0506084 0
-10.002517 -0.055047994 0
3.5213116 0.34404426 0
-2.778791 -9.6630971 0
-9.1046964 -11.840413 0
-2.4264854 -3.3621011 0
4.4914847 -3.0074438 0
-5.7346205 8.6128621 0
-6.6236691 -12.886692 0
-5.4050946 8.4321615 0
-3.4956635 10.041711 0
-2.6346592 -13.726701 0
11.389892 -10.794168 0
-5.4483052 -9.7796987 0
-5.7257002 -2.2545749 0
-3.875146 3.3366316 0
6.4605828 -3.5524849 0
2.4426611 -1.3765437 0
-10.977326 3.0081155 0
-9.5201959 0.12077574 0
-10.010553 -0.2350433 0
-1.5866497 3.0330678 0
9.1383665 13.490364 0
9.6937301 3.6793271 0
10.695631 -4.0647531 0
3.7519193 -4.2084249 0
-10.117561 0.073784005 0
-3.0313142 -15.927914 0
2.0235763 -14.512068 0
-2.7274145 -7.5718821 0
4.4188362 -5.2613492 0
-8.5202072 0.54972565 0
-8.4091061 -11.946904 0
-5.4624452 9.7614785 0
9.2588169 -2.5924356 0
-2.6346593 13.726701 0
-0.16836016 -9.2313539 0
-13.57552 -4.4621405 0
-0.088936842 7.231016 0
9.0588834 2.5680999 0
-10.532864 -8.1749237 0
-2.225412 10.380597 0
-4.7081629 5.2771526 0
6.3780445 -12.86727 0
6.1817441 -0.69170506 0
-4.6361946 -1.2470407 0
9.2906861 -3.8989294 0
7.1380244 -10.407025 0
13.306585 3.9718683 0
-3.294079 5.0677953 0
-6.0425591 12.437349 0
-1.4681031 -9.7511761 0
2.5309305 -7.9010341 0
-3.1652317 3.0272738 0
-7.0735178 2.8955492 0
7.8960325 7.9529385 0
-10.100272 0.43399458 0
-5.6414217 4.4550032 0
0.33359044 5.4667976 0
-11.045264 -5.2230473 0
-0.17422221 9.2064547 0
0.50505965 -3.6789999 0
-6.8351626 -10.619163 0
11.097286 3.4284641 0
-6.4330706 -1.463214 0
3.9451215 5.4033696 0
7.7384836 8.1113084 0
-8.0720024 4.729486 0
4.4382736 6.7110383 0
-11.621806 -5.5670108 0
1.7944291 10.210273 0
-3.6080505 -0.50078785 0
-2.411721 -9.6829316 0
7.4151021 9.328228 0
9.7894268 -2.2465163 0
-10.065068 0.39753863 0
12.024721 7.9137892 0
-3.405211 -4.1115413 0
-2.0152787 7.8434838 0
9.859591 0.027572303 0
1.6460225 -8.837345 0
0.28864537 5.4284828 0
-8.6344662 2.9543213 0
2.6978469 -9.5470317 0