# vtk DataFile Version 4.0
hesp visualization file
ASCII
DATASET UNSTRUCTURED_GRID
POINTS 1250 double
33.09964 1.8458647 4
30.754725 3.7877923 4
31.377826 3.4979451 4
30.566195 4.4927141 4
30.306434 5.7247781 4
30.54803 6.7347695 4
30.548025 7.8572343 4
30.548025 8.9796964 4
30.548025 10.102158 4
30.548025 11.22462 4
30.548025 12.347083 4
30.548025 13.469545 4
30.548025 14.592032 4
30.548025 15.714468 4
30.548025 16.836931 4
30.548025 17.959393 4
30.548025 19.081855 4
30.548025 20.204317 4
30.548025 21.326779 4
30.54803 22.449244 4
30.307856 23.456611 4
30.566196 24.691168 4
31.378296 25.686527 4
30.754724 25.396222 4
33.099622 27.338141 4
31.080333 -2.8788972 4
32.234926 1.9521991 4
31.161541 2.8553015 4
30.883917 4.2095107 4
31.10943 6.1555157 4
30.778592 6.7347393 4
30.778587 7.8572342 4
30.778587 8.9796964 4
30.778587 10.102158 4
30.778587 11.22462 4
30.778587 12.347083 4
30.778587 13.469544 4
30.778587 14.591987 4
30.778587 15.714469 4
30.778587 16.836931 4
30.778587 17.959393 4
30.778587 19.081855 4
30.778587 20.204317 4
30.778587 21.326779 4
30.778592 22.449274 4
31.109796 23.02898 4
30.884035 24.974615 4
31.161226 26.328504 4
32.234926 27.231816 4
31.080333 32.06291 4
30.504353 0.95563539 4
31.780089 2.6013938 4
30.720659 5.4563236 4
31.775096 4.892489 4
31.876793 5.609089 4
31.874536 6.7347625 4
31.874538 7.8572343 4
31.874538 8.9796964 4
31.874538 10.102158 4
31.874538 11.22462 4
31.874538 12.347083 4
31.874538 13.469545 4
31.874538 14.592023 4
31.874538 15.714469 4
31.874538 16.836931 4
31.874538 17.959393 4
31.874538 19.081855 4
31.874538 20.204317 4
31.874538 21.326779 4
31.874536 22.449251 4
31.876793 23.573918 4
31.774981 24.291367 4
30.718781 23.729575 4
31.780064 26.582642 4
30.504353 28.228378 4
31.760737 -0.65186341 4
31.763158 -0.017322987 4
32.728059 3.8303998 4
32.122122 4.2464504 4
32.114067 5.613164 4
32.105331 6.7347718 4
32.105334 7.8572343 4
32.105334 8.9796964 4
32.105334 10.102158 4
32.105334 11.22462 4
32.105334 12.347083 4
32.105334 13.469545 4
32.105334 14.591999 4
32.105334 15.714469 4
32.105334 16.836931 4
32.105334 17.959393 4
32.105334 19.081855 4
32.105334 20.204317 4
32.105334 21.326779 4
32.105331 22.449241 4
32.114159 23.571429 4
32.122143 24.937636 4
32.72791 25.353268 4
31.763157 29.201336 4
31.760737 29.835877 4
34.16135 2.9246249 4
30.535307 2.8185561 4
32.414734 2.846105 4
33.228943 4.6584526 4
33.201015 5.6119082 4
33.201018 6.7347726 4
33.201018 7.8572343 4
33.201018 8.9796964 4
33.201018 10.102158 4
33.201018 11.22462 4
33.201018 12.347083 4
33.201018 13.469545 4
33.201018 14.592012 4
33.201018 15.714469 4
33.201018 16.836931 4
33.201018 17.959393 4
33.201018 19.081855 4
33.201018 20.204317 4
33.201018 21.326779 4
33.201018 22.449241 4
33.201015 23.571716 4
33.228941 24.525527 4
32.414962 26.338336 4
30.535309 26.365453 4
34.16135 26.259386 4
31.16524 0.47569268 4
33.129975 1.2147729 4
34.214866 3.8134699 4
33.410682 4.4898815 4
33.432196 5.6124614 4
33.432205 6.7347722 4
33.432206 7.8572343 4
33.432206 8.9796964 4
33.432206 10.102158 4
33.432206 11.22462 4
33.432206 12.347083 4
33.432206 13.469545 4
33.432206 14.592005 4
33.432206 15.714469 4
33.432206 16.836931 4
33.432206 17.959393 4
33.432206 19.081855 4
33.432206 20.204317 4
33.432206 21.326779 4
33.432205 22.449241 4
33.432197 23.571699 4
33.410682 24.694098 4
34.214621 25.370181 4
33.12999 27.969242 4
31.165239 28.70832 4
32.039065 2.3810512 4
35.676469 2.8300694 4
33.62647 3.2381694 4
34.527526 4.4881661 4
34.527518 5.6122172 4
34.527518 6.7347723 4
34.527518 7.8572343 4
34.527518 8.9796964 4
34.527518 10.102158 4
34.527518 11.22462 4
34.527518 12.347083 4
34.527518 13.469545 4
34.527518 14.592008 4
34.527518 15.714469 4
34.527518 16.836931 4
34.527518 17.959393 4
34.527518 19.081855 4
34.527518 20.204317 4
34.527518 21.326779 4
34.527518 22.449241 4
34.527518 23.571706 4
34.527526 24.69588 4
33.626494 25.946001 4
35.676428 26.353987 4
32.039065 26.802964 4
36.294131 -1.31547 4
34.06158 3.5354623 4
35.303973 3.2647026 4
34.759096 4.4902423 4
34.759132 5.6123333 4
34.759132 6.7347723 4
34.759132 7.8572343 4
34.759132 8.9796964 4
34.759132 10.102158 4
34.759132 11.22462 4
34.759132 12.347083 4
34.759132 13.469545 4
34.759132 14.592006 4
34.759132 15.714469 4
34.759132 16.836931 4
34.759132 17.959393 4
34.759132 19.081855 4
34.759132 20.204317 4
34.759132 21.326779 4
34.759132 22.449241 4
34.759132 23.571703 4
34.759096 24.693757 4
35.303769 25.919166 4
34.061573 25.648539 4
36.294131 30.499483 4
34.035963 2.5143747 4
35.437487 2.3340792 4
35.55621 4.1775263 4
35.853999 4.4893456 4
35.854056 5.612299 4
35.854056 6.7347723 4
35.854056 7.8572343 4
35.854056 8.9796964 4
35.854056 10.102158 4
35.854056 11.22462 4
35.854056 12.347083 4
35.854056 13.469545 4
35.854056 14.592007 4
35.854056 15.714469 4
35.854056 16.836931 4
35.854056 17.959393 4
35.854056 19.081855 4
35.854056 20.204317 4
35.854056 21.326779 4
35.854056 22.449241 4
35.854056 23.571703 4
35.853999 24.694677 4
35.55644 25.006491 4
35.4375 26.849926 4
34.035963 26.669639 4
34.224197 1.124541 4
35.853245 0.91475599 4
36.062813 3.4078728 4
36.085927 4.4898684 4
36.086005 5.6123119 4
36.086005 6.7347723 4
36.086005 7.8572343 4
36.086005 8.9796964 4
36.086005 10.102158 4
36.086005 11.22462 4
36.086005 12.347083 4
36.086005 13.469545 4
36.086005 14.592007 4
36.086005 15.714469 4
36.086005 16.836931 4
36.086005 17.959393 4
36.086005 19.081855 4
36.086005 20.204317 4
36.086005 21.326779 4
36.086005 22.449241 4
36.086005 23.571703 4
36.085927 24.694142 4
36.062816 25.776086 4
35.853245 28.269257 4
34.224197 28.059472 4
35.277525 1.0771002 4
37.366816 3.1287467 4
37.200369 3.3401251 4
37.180606 4.4898532 4
37.180606 5.6123096 4
37.180606 6.7347723 4
37.180606 7.8572343 4
37.180606 8.9796964 4
37.180606 10.102158 4
37.180606 11.22462 4
37.180606 12.347083 4
37.180606 13.469545 4
37.180606 14.592007 4
37.180606 15.714469 4
37.180606 16.836931 4
37.180606 17.959393 4
37.180606 19.081855 4
37.180606 20.204317 4
37.180606 21.326779 4
37.180606 22.449241 4
37.180606 23.571703 4
37.180606 24.694161 4
37.200359 25.843923 4
37.366825 26.055269 4
35.277525 28.106913 4
36.469406 1.1246432 4
36.466894 2.2495838 4
37.460664 3.4915578 4
37.412701 4.489842 4
37.412702 5.6123103 4
37.412702 6.7347723 4
37.412702 7.8572343 4
37.412702 8.9796964 4
37.412702 10.102158 4
37.412702 11.22462 4
37.412702 12.347083 4
37.412702 13.469545 4
37.412702 14.592007 4
37.412702 15.714469 4
37.412702 16.836931 4
37.412702 17.959393 4
37.412702 19.081855 4
37.412702 20.204317 4
37.412702 21.326779 4
37.412702 22.449241 4
37.412702 23.571703 4
37.412701 24.694171 4
37.460661 25.692455 4
36.466894 26.934429 4
36.469406 28.05937 4
37.592006 1.124629 4
37.591983 2.2449663 4
38.506936 3.3663375 4
38.50697 4.4898507 4
38.506971 5.6123102 4
38.506971 6.7347723 4
38.506971 7.8572343 4
38.506971 8.9796964 4
38.506971 10.102158 4
38.506971 11.22462 4
38.506971 12.347083 4
38.506971 13.469545 4
38.506971 14.592007 4
38.506971 15.714469 4
38.506971 16.836931 4
38.506971 17.959393 4
38.506971 19.081855 4
38.506971 20.204317 4
38.506971 21.326779 4
38.506971 22.449241 4
38.506971 23.571703 4
38.50697 24.694163 4
38.506936 25.817678 4
37.591983 26.939047 4
37.592006 28.059384 4
38.714469 1.1246282 4
38.714467 2.2449366 4
38.738419 3.3674837 4
38.738541 4.489848 4
38.738541 5.6123102 4
38.738541 6.7347723 4
38.738541 7.8572343 4
38.738541 8.9796964 4
38.738541 10.102158 4
38.738541 11.22462 4
38.738541 12.347083 4
38.738541 13.469545 4
38.738541 14.592007 4
38.738541 15.714469 4
38.738541 16.836931 4
38.738541 17.959393 4
38.738541 19.081855 4
38.738541 20.204317 4
38.738541 21.326779 4
38.738541 22.449241 4
38.738541 23.571703 4
38.738541 24.694165 4
38.738419 25.816529 4
38.714467 26.939077 4
38.714469 28.059385 4
39.836931 1.1246282 4
39.836931 2.2449346 4
39.83693 3.3673861 4
39.83693 4.4898482 4
39.83693 5.6123102 4
39.83693 6.7347723 4
39.83693 7.8572343 4
39.83693 8.9796964 4
39.83693 10.102158 4
39.83693 11.22462 4
39.83693 12.347083 4
39.83693 13.469545 4
39.83693 14.592007 4
39.83693 15.714469 4
39.83693 16.836931 4
39.83693 17.959393 4
39.83693 19.081855 4
39.83693 20.204317 4
39.83693 21.326779 4
39.83693 22.449241 4
39.83693 23.571703 4
39.83693 24.694165 4
39.83693 25.816627 4
39.836931 26.939079 4
39.836931 28.059385 4
40.959393 1.1246282 4
40.959393 2.2449345 4
40.959393 3.3673861 4
40.959393 4.4898482 4
40.959393 5.6123102 4
40.959393 6.7347723 4
40.959393 7.8572343 4
40.959393 8.9796964 4
40.959393 10.102158 4
40.959393 11.22462 4
40.959393 12.347083 4
40.959393 13.469545 4
40.959393 14.592007 4
40.959393 15.714469 4
40.959393 16.836931 4
40.959393 17.959393 4
40.959393 19.081855 4
40.959393 20.204317 4
40.959393 21.326779 4
40.959393 22.449241 4
40.959393 23.571703 4
40.959393 24.694165 4
40.959393 25.816627 4
40.959393 26.939079 4
40.959393 28.059385 4
42.081855 1.1246282 4
42.081855 2.2449345 4
42.081855 3.3673861 4
42.081855 4.4898482 4
42.081855 5.6123102 4
42.081855 6.7347723 4
42.081855 7.8572343 4
42.081855 8.9796964 4
42.081855 10.102158 4
42.081855 11.22462 4
42.081855 12.347083 4
42.081855 13.469545 4
42.081855 14.592007 4
42.081855 15.714469 4
42.081855 16.836931 4
42.081855 17.959393 4
42.081855 19.081855 4
42.081855 20.204317 4
42.081855 21.326779 4
42.081855 22.449241 4
42.081855 23.571703 4
42.081855 24.694165 4
42.081855 25.816627 4
42.081855 26.939079 4
42.081855 28.059385 4
43.204317 1.1246282 4
43.204317 2.2449345 4
43.204317 3.3673861 4
43.204317 4.4898482 4
43.204317 5.6123102 4
43.204317 6.7347723 4
43.204317 7.8572343 4
43.204317 8.9796964 4
43.204317 10.102158 4
43.204317 11.22462 4
43.204317 12.347083 4
43.204317 13.469545 4
43.204317 14.592007 4
43.204317 15.714469 4
43.204317 16.836931 4
43.204317 17.959393 4
43.204317 19.081855 4
43.204317 20.204317 4
43.204317 21.326779 4
43.204317 22.449241 4
43.204317 23.571703 4
43.204317 24.694165 4
43.204317 25.816627 4
43.204317 26.939079 4
43.204317 28.059385 4
44.326779 1.1246282 4
44.326779 2.2449345 4
[...]
POINT_DATA 1250
SCALARS m double
LOOKUP_TABLE default
1
1
1
1
1
1
1
1
1
1
1
1
1
1
1
1
1
1
1
1
1
1
1
1
1
1
1
1
1
1
1
1
1
1
1
1
1
1
1
1
1
1
1
1
1
1
1
1
1
1
1
1
1
1
1
1
1
1
1
1
1
1
1
1
1
1
1
1
1
1
1
1
1
1
1
1
1
1
1
1
1
1
1
1
1
1
1
1
1
1
1
1
1
1
1
1
1
1
1
1
1
1
1
1
1
1
1
1
1
1
1
1
1
1
1
1
1
1
1
1
1
1
1
1
1
1
1
1
1
1
1
1
1
1
1
1
1
1
1
1
1
1
1
1
1
1
1
1
1
1
1
1
1
1
1
1
1
1
1
1
1
1
1
1
1
1
1
1
1
1
1
1
1
1
1
1
1
1
1
1
1
1
1
1
1
1
1
1
1
1
1
1
1
1
1
1
1
1
1
1
1
1
1
1
1
1
1
1
1
1
1
1
1
1
1
1
1
1
1
1
1
1
1
1
1
1
1
1
1
1
1
1
1
1
1
1
1
1
1
1
1
1
1
1
1
1
1
1
1
1
1
1
1
1
1
1
1
1
1
1
1
1
1
1
1
1
1
1
1
1
1
1
1
1
1
1
1
1
1
1
1
1
1
1
1
1
1
1
1
1
1
1
1
1
1
1
1
1
1
1
1
1
1
1
1
1
1
1
1
1
1
1
1
1
1
1
1
1
1
1
1
1
1
1
1
1
1
1
1
1
1
1
1
1
1
1
1
1
1
1
1
1
1
1
1
1
1
1
1
1
1
1
1
1
1
1
1
1
1
1
1
1
1
1
1
1
1
1
1
1
1
1
1
1
1
1
1
1
1
1
1
1
1
1
1
1
1
1
1
1
1
1
1
1
1
1
1
1
1
1
1
1
1
1
1
1
1
1
1
1
1
1
1
1
1
1
1
1
1
1
1
1
1
1
1
1
1
1
1
1
1
1
1
1
1
1
1
1
1
1
1
1
1
1
1
1
1
1
1
1
1
1
1
1
1
1
1
1
1
1
1
1
1
1
1
1
1
1
1
1
1
1
1
1
1
1
1
1
1
1
1
1
1
1
1
1
1
1
1
1
1
1
1
1
1
1
1
1
1
1
1
1
1
1
1
1
1
1
1
1
1
1
1
1
1
1
1
1
1
1
1
1
1
1
1
1
1
1
1
1
1
1
1
1
1
1
1
1
1
1
1
1
1
1
1
1
1
1
1
1
1
1
1
1
1
1
1
1
1
1
1
1
1
1
1
1
1
1
1
1
1
1
1
1
1
1
1
1
1
1
1
1
1
1
1
1
1
1
1
1
1
1
1
1
1
1
1
1
1
1
1
1
1
1
1
1
1
1
1
1
1
1
1
1
1
1
1
1
1
1
1
1
1
1
1
1
1
1
1
1
1
1
1
1
1
1
1
1
1
1
1
1
1
1
1
1
1
1
1
1
1
1
1
1
1
1
1
1
1
1
1
1
1
1
1
1
1
1
1
1
1
1
1
1
1
1
1
1
1
1
1
1
1
1
1
1
1
1
1
1
1
1
1
1
1
1
1
1
1
1
1
1
1
1
1
1
1
1
1
1
1
1
1
1
1
1
1
1
1
1
1
1
1
1
1
1
1
1
1
1
1
1
1
1
1
1
1
1
1
1
1
1
1
1
1
1
1
1
1
1
1
1
1
1
1
1
1
1
1
1
1
1
1
1
1
1
1
1
1
1
1
1
1
1
1
1
1
1
1
1
1
1
1
1
1
1
1
1
1
1
1
1
1
1
1
1
1
1
1
1
1
1
1
1
1
1
1
1
1
1
1
1
1
1
1
1
1
1
1
1
1
1
1
1
1
1
1
1
1
1
1
1
1
1
1
1
1
1
1
1
1
1
1
1
1
1
1
1
1
1
1
1
1
1
1
1
1
1
1
1
1
1
1
1
1
1
1
1
1
1
1
1
1
1
1
1
1
1
1
1
1
1
1
1
1
1
1
1
1
1
1
1
1
1
1
1
1
1
1
1
1
1
1
1
1
1
1
1
1
1
1
1
1
1
1
1
1
1
1
1
1
1
1
1
1
1
1
1
1
1
1
1
1
1
1
1
1
1
1
1
1
1
1
1
1
1
1
1
1
1
1
1
1
1
1
1
1
1
1
1
1
1
1
1
1
1
1
1
1
1
1
1
1
1
1
1
1
1
1
1
1
1
1
1
1
1
1
1
1
1
1
1
1
1
1
1
1
1
1
1
1
1
1
1
1
1
1
1
1
1
1
1
1
1
1
1
1
1
1
1
1
1
1
1
1
1
1
1
1
1
1
1
1
1
1
1
1
1
1
1
1
1
1
1
1
1
1
1
1
1
1
1
1
1
1
1
1
1
1
1
1
1
1
1
1
1
1
1
1
1
1
1
1
1
1
1
1
1
1
1
1
1
1
1
1
1
1
1
1
1
1
1
1
1
1
1
1
1
1
1
1
1
1
1
1
1
1
1
1
1
1
1
1
1
1
1
1
1
1
1
1
1
1
1
1
1
1
1
1
1
1
1
1
1
1
1
1
1
1
1
1
1
1
1
1
1
1
1
1
1
1
1
1
1
1
1
1
1
1
1
1
1
1
1
1
1
1
1
1
1
1
1
1
1
1
1
1
1
1
1
1
1
1
1
1
1
1
1
1
1
1
1
1
1
1
1
1
1
1
1
1
1
1
1
1
1
1
1
1
1
1
1
1
1
1
1
1
1
1
1
1
1
1
1
1
1
1
1
1
1
1
1
1
1
1
1
1
1
1
1
1
1
1
1
1
1
1
1
1
1
VECTORS v double
3.5381362 7.4849388 0
6.6633697 7.4248012 0
6.4689349 5.2022434 0
9.9816967 0.011571822 0
-11.597741 9.3386711 0
-4.9261767 0.0010427217 0
-4.9277939 -2.2861489e-06 0
-4.9277933 2.4417453e-06 0
-4.9277933 -5.3813663e-11 0
-4.9277933 -7.2574966e-11 0
-4.9277933 2.3934271e-06 0
-4.9277933 3.0702399e-05 0
-4.927792 0.0029265558 0
-4.9277933 -3.112321e-05 0
-4.9277933 1.4560573e-09 0
-4.9277933 -3.3260453e-13 0
-4.9277933 -3.2664006e-13 0
-4.9277933 -9.6031761e-11 0
-4.9277939 2.2705122e-06 0
-4.9261837 -0.001024488 0
-11.49008 -9.4845545 0
9.981622 -0.014302609 0
6.4836096 -5.1890178 0
6.6633492 -7.4248067 0
3.5375284 -7.4851404 0
-2.6309683 -13.726702 0
8.1363408 -2.6071533 0
-5.4448559 -9.7968176 0
-7.5017262 -6.0306963 0
-1.5768798 12.857778 0
4.9277109 -0.0043899636 0
4.9278482 -9.1087601e-06 0
4.9278464 -2.2051004e-06 0
4.9278464 3.6562055e-11 0
4.9278464 4.886619e-11 0
4.9278464 -2.16078e-06 0
4.9278464 -2.9010245e-05 0
4.9278451 -0.0028121234 0
4.9278464 2.9400585e-05 0
4.9278464 -1.3074904e-09 0
4.9278464 3.5156183e-12 0
4.9278464 -3.6086754e-13 0
4.9278464 -1.8548701e-10 0
4.9278482 9.1156189e-06 0
4.9277107 0.0043602367 0
-1.5694779 -12.848401 0
-7.4992992 6.0331624 0
-5.4577401 9.7866906 0
8.1363359 2.6071625 0
-2.6309683 13.726702 0
-9.3141286 0.071253671 0
0.52395762 -3.328186 0
7.3374591 -6.2133271 0
7.5209955 7.2655818 0
-6.9195763 -0.30333935 0
-5.0219711 -0.00097068754 0
-5.022571 -5.9556897e-06 0
-5.0225696 7.347132e-07 0
-5.0225696 -9.2448864e-12 0
-5.0225696 -9.0574455e-12 0
-5.0225696 7.1698058e-07 0
-5.0225696 1.4267747e-05 0
-5.0225692 0.0016504491 0
-5.0225696 -1.4481939e-05 0
-5.0225696 5.6676922e-10 0
-5.0225696 8.8978556e-13 0
-5.0225696 -2.8754413e-13 0
-5.0225696 -1.4700897e-10 0
-5.022571 5.943223e-06 0
-5.0219724 0.00097856336 0
-6.9377456 0.18970352 0
7.5186697 -7.2684354 0
7.2203181 6.3442828 0
0.52379971 3.3282977 0
-9.3141247 -0.071258715 0
-0.34360548 -3.8241258 0
-6.9828036 -10.489795 0
8.9329 5.0207816 0
-9.2303316 -4.3127223 0
7.1570501 0.25696516 0
5.0216721 0.00044262537 0
5.0226913 -4.996195e-08 0
5.0226923 -6.0195353e-07 0
5.0226923 1.455719e-12 0
5.0226923 -3.1865793e-14 0
5.0226923 -5.8749749e-07 0
5.0226923 -1.2364664e-05 0
5.0226919 -0.0014771409 0
5.0226923 1.2536204e-05 0
5.0226923 -4.1264933e-10 0
5.0226923 1.4478885e-12 0
5.0226923 -1.9157511e-13 0
5.0226923 -2.1061863e-11 0
5.0226913 6.0933837e-08 0
5.0216737 -0.00044921717 0
7.1772754 -0.15230549 0
-9.2299208 4.3139405 0
8.9311364 -5.0245369 0
-6.9828079 10.489795 0
-0.34360539 3.8241258 0
5.4414333 5.667313 0
-9.5629099 2.2528432 0
-8.6649364 -5.259229 0
7.6283431 5.1217469 0
-5.1727579 -0.038835283 0
-5.1750998 2.4023682e-05 0
-5.1751544 -3.2770664e-08 0
-5.1751544 7.2584647e-08 0
-5.1751544 -5.9334881e-13 0
-5.1751544 -1.0924904e-12 0
-5.1751544 7.056088e-08 0
-5.1751544 2.9847223e-06 0
-5.1751544 0.00050155426 0
-5.1751544 -3.0348218e-06 0
-5.1751544 6.8337093e-11 0
-5.1751544 8.0317885e-13 0
-5.1751544 -3.1483577e-14 0
-5.1751544 -6.5066565e-12 0
-5.1751544 2.744295e-08 0
-5.1751001 -2.1606488e-05 0
-5.172964 0.0013854029 0
7.6283194 -5.1223395 0
-8.6625554 5.2635791 0
-9.5628671 -2.252883 0
5.4414069 -5.6673839 0
-1.1297483 -6.3163558 0
-1.995802 -10.932274 0
8.7594827 4.7034545 0
-7.9937895 -1.6039438 0
5.1727218 0.033230951 0
5.1752532 -2.0443564e-05 0
5.1753153 6.7014983e-09 0
5.1753153 -5.5188003e-08 0
5.1753153 -4.078968e-13 0
5.1753153 -7.8883526e-13 0
5.1753153 -5.3701447e-08 0
5.1753153 -2.4108945e-06 0
5.1753153 -0.00042185645 0
5.1753153 2.4441547e-06 0
5.1753153 -4.1917303e-11 0
5.1753153 8.3706819e-13 0
5.1753153 -4.8086099e-15 0
5.1753153 3.1739294e-12 0
5.1753153 -9.8857778e-10 0
5.1752534 1.8656591e-05 0
5.1729306 -0.00086780857 0
-7.9939984 1.6031338 0
8.7554757 -4.7025838 0
-1.9952176 10.932441 0
-1.1297547 6.316359 0
-9.1385876 4.0474258 0
3.7684774 -5.4090087 0
-9.6627679 -1.2183589 0
-5.3177133 -0.15105752 0
-5.3332922 -0.0083674916 0
-5.3334375 -1.4769352e-07 0
-5.3334379 -1.5374303e-09 0
-5.3334379 -5.519467e-13 0
-5.3334379 -2.9992917e-15 0
-5.3334379 -3.2193474e-13 0
-5.3334379 1.1152873e-11 0
-5.3334379 2.2376819e-07 0
-5.3334379 7.5849993e-05 0
-5.3334379 -2.2833478e-07 0
-5.3334379 5.9774954e-12 0
-5.3334379 6.2415465e-13 0
-5.3334379 -4.6735226e-15 0
-5.3334379 -2.6623024e-14 0
-5.3334379 2.6286253e-11 0
-5.3334375 4.9971811e-07 0
-5.3333016 0.00027605251 0
-5.3175764 0.15431775 0
-9.6624687 1.2202007 0
3.7678686 5.4097377 0
-9.1385754 -4.0474193 0
4.8370537 -9.9977551 0
-7.8994586 10.410977 0
1.5632458 -3.5847351 0
5.3177208 0.12154474 0
5.3335295 0.006871303 0
5.3336815 -4.2339155e-08 0
5.3336821 1.5981121e-09 0
5.3336821 -3.6903123e-13 0
5.3336821 3.8293372e-15 0
5.3336821 -1.987329e-13 0
5.3336821 -1.5411779e-11 0
5.3336821 -1.7135087e-07 0
5.3336821 -6.0550674e-05 0
5.3336821 1.7337776e-07 0
5.3336821 -4.1978154e-12 0
5.3336821 3.8220335e-13 0
5.3336821 -4.5461052e-15 0
5.3336821 -3.779476e-15 0
5.3336821 -4.1645777e-11 0
5.3336815 -1.6942936e-07 0
5.333539 -0.00019393484 0
5.3175767 -0.12440327 0
1.5586314 3.5828741 0
-7.8980883 -10.416024 0
4.8370538 9.9977551 0
-5.8596608 6.3856456 0
4.8687409 -1.6241498 0
2.6579673 15.041413 0
-5.4470206 -0.063903372 0
-5.4525871 -0.00096648037 0
-5.4525785 1.4767759e-08 0
-5.4525785 -2.0397853e-10 0
-5.4525785 -4.256479e-13 0
-5.4525785 4.9592245e-15 0
-5.4525785 -2.1710719e-13 0
-5.4525785 -4.3198917e-13 0
-5.4525785 -6.1655958e-11 0
-5.4525785 4.4370191e-06 0
-5.4525785 -6.4874027e-11 0
-5.4525785 5.0166651e-13 0
-5.4525785 4.3010109e-13 0
-5.4525785 -4.4161195e-15 0
-5.4525785 1.8118702e-17 0
-5.4525785 -1.2257861e-12 0
-5.4525785 4.7098851e-09 0
-5.4525872 3.8297065e-05 0
-5.4470211 0.064767897 0
2.6630535 -15.041359 0
4.8688697 1.6240474 0
-5.8596614 -6.385645 0
-10.002129 0.0058483782 0
-3.9430468 -8.2763425 0
-9.974545 0.73995475 0
5.4241836 0.026077575 0
5.4529337 0.00074501547 0
5.4529323 6.5585027e-10 0
5.4529323 2.0243077e-10 0
5.4529323 -3.1287958e-13 0
5.4529323 4.820222e-15 0
5.4529323 -1.599529e-13 0
5.4529323 -4.8330709e-13 0
5.4529323 -1.2249345e-11 0
5.4529323 -3.3903715e-06 0
5.4529323 -8.2991854e-12 0
5.4529323 2.3519109e-13 0
5.4529323 3.1590222e-13 0
5.4529323 -4.2868817e-15 0
5.4529323 -1.9236012e-16 0
5.4529323 -1.2004172e-12 0
5.4529323 -5.7255114e-09 0
5.4529338 -9.2405505e-06 0
5.4241581 -0.026754588 0
-9.9744797 -0.74095193 0
-3.9430445 8.2763368 0
-10.002129 -0.0058483764 0
-11.496385 -1.080042 0
-0.21361124 -6.4460123 0
8.2488545 0.93259124 0
-5.5033627 0.00067408073 0
-5.5036782 -4.9863512e-05 0
-5.5036832 3.5441879e-10 0
-5.5036832 -3.2772642e-12 0
-5.5036832 -1.5644117e-13 0
-5.5036832 4.6664137e-15 0
-5.5036832 -8.1277425e-14 0
-5.5036832 -1.5434484e-13 0
-5.5036832 -9.1758511e-13 0
-5.5036832 3.2366141e-12 0
-5.5036832 -2.6691807e-13 0
-5.5036832 1.5481995e-13 0
-5.5036832 1.5867388e-13 0
-5.5036832 -4.1573627e-15 0
-5.5036832 -2.6979188e-18 0
-5.5036832 -2.3437857e-13 0
-5.5036832 -2.1006927e-10 0
-5.5036782 6.3603199e-06 0
-5.5033626 -0.00057326818 0
8.2471184 -0.93331012 0
-0.21149725 6.4474168 0
-11.496389 1.0800463 0
-10.007179 0.0055327175 0
-10.029525 0.062472535 0
-2.8468826 12.243111 0
5.5036692 -0.00080785998 0
5.5040068 3.6084195e-05 0
5.5040137 3.955642e-10 0
5.5040137 5.0254962e-12 0
5.5040137 -2.0988988e-13 0
5.5040137 4.5202203e-15 0
5.5040137 -1.0788274e-13 0
5.5040137 -2.0793029e-13 0
5.5040137 -5.2138638e-13 0
5.5040137 -1.5622144e-12 0
5.5040137 2.4552051e-13 0
5.5040137 2.0805136e-13 0
5.5040137 2.1200693e-13 0
5.5040137 -4.0273211e-15 0
5.5040137 -9.2459792e-18 0
5.5040137 -1.6165079e-13 0
5.5040137 7.1551049e-11 0
5.5040068 -2.8010177e-06 0
5.5036691 0.00072764219 0
-2.8473237 -12.24301 0
-10.029525 -0.062472585 0
-10.007179 -0.0055327205 0
-10.000022 0.0062193262 0
-10.000642 0.0011806744 0
-5.2882614 -0.085580129 0
-5.3202193 0.00019624705 0
-5.3203178 -1.7935616e-07 0
-5.3203178 4.5521101e-11 0
-5.3203178 -7.9611039e-15 0
-5.3203178 -2.9899665e-14 0
-5.3203178 4.3736925e-15 0
-5.3203178 -1.7783628e-14 0
-5.3203178 -2.8084877e-14 0
-5.3203178 -3.8406772e-14 0
-5.3203178 -5.9908306e-14 0
-5.3203178 4.1894424e-14 0
-5.3203178 2.8110772e-14 0
-5.3203178 3.1930247e-14 0
-5.3203178 -3.8974144e-15 0
-5.3203178 -1.3210107e-17 0
-5.3203178 -1.1619211e-15 0
-5.3203178 -2.9731472e-11 0
-5.3203178 1.5882562e-07 0
-5.3202193 -0.00019124349 0
-5.2882574 0.085747975 0
-10.000642 -0.0011806862 0
-10.000022 -0.0062193263 0
-10.000001 0.0062042092 0
-10.000069 0.00015794747 0
5.2830458 0.065421573 0
5.3177054 -0.00015610303 0
5.3178239 8.0513638e-09 0
5.317824 -3.85326e-11 0
5.317824 2.0389591e-15 0
5.317824 -4.530034e-15 0
5.317824 4.2302177e-15 0
5.317824 -5.0066189e-15 0
5.317824 -2.7887613e-15 0
5.317824 -5.6773611e-16 0
5.317824 -9.0823654e-15 0
5.317824 3.9424301e-15 0
5.317824 2.8024365e-15 0
5.317824 6.4953588e-15 0
5.317824 -3.7697828e-15 0
5.317824 -1.259804e-17 0
5.317824 -1.8496611e-15 0
5.317824 2.9864036e-11 0
5.3178239 7.5088953e-09 0
5.3177054 0.0001522863 0
5.2830417 -0.065549448 0
-10.000069 -0.00015794848 0
-10.000001 -0.0062042092 0
-10 0.0062019312 0
-10.000005 2.0599726e-05 0
-10.000033 3.3723179e-06 0
-10.000038 1.8403946e-08 0
-10.000038 -2.9681907e-12 0
-10.000038 1.9659262e-14 0
-10.000038 -9.4302164e-18 0
-10.000038 -1.7659182e-15 0
-10.000038 4.1521127e-15 0
-10.000038 -3.5744629e-15 0
-10.000038 -6.0138669e-17 0
-10.000038 3.4623388e-15 0
-10.000038 -3.5536553e-15 0
-10.000038 -1.4968664e-16 0
-10.000038 7.1434457e-17 0
-10.000038 3.6956098e-15 0
-10.000038 -3.7007599e-15 0
-10.000038 -1.2792999e-17 0
-10.000038 1.4379231e-16 0
-10.000038 -1.5829397e-14 0
-10.000038 2.7317275e-12 0
-10.000038 -1.841128e-08 0
-10.000033 -3.3722924e-06 0
-10.000005 -2.0599734e-05 0
-10 -0.0062019312 0
-10 0.0062019183 0
-10 1.697924e-05 0
-10 -2.3612323e-07 0
-10 -2.1871872e-10 0
-10 1.7736776e-12 0
-10 1.2872465e-15 0
-10 -8.0232205e-18 0
-10 -1.7660406e-15 0
-10 4.1516036e-15 0
-10 -3.5735249e-15 0
-10 -5.9928943e-17 0
-10 3.4615308e-15 0
-10 -3.5525038e-15 0
-10 -1.4953046e-16 0
-10 7.1603332e-17 0
-10 3.6950228e-15 0
-10 -3.6999966e-15 0
-10 -1.2774496e-17 0
-10 1.4308921e-16 0
-10 1.374888e-15 0
-10 -1.774696e-12 0
-10 2.1871997e-10 0
-10 2.3612331e-07 0
-10 -1.697924e-05 0
-10 -0.0062019183 0
-10 0.0062019184 0
-10 1.6972566e-05 0
-10 -2.4276081e-07 0
-10 -2.1861096e-10 0
-10 1.766311e-12 0
-10 1.2838576e-15 0
-10 -8.1302066e-18 0
-10 -1.7664413e-15 0
-10 4.1518029e-15 0
-10 -3.5729701e-15 0
-10 -5.9882479e-17 0
-10 3.4615877e-15 0
-10 -3.5529358e-15 0
-10 -1.4939943e-16 0
-10 7.0999468e-17 0
-10 3.6950601e-15 0
-10 -3.7000637e-15 0
-10 -1.2771132e-17 0
-10 1.4300134e-16 0
-10 1.3781036e-15 0
-10 -1.7673401e-12 0
-10 2.1860944e-10 0
-10 2.4276081e-07 0
-10 -1.6972566e-05 0
-10 -0.0062019184 0
-10 0.0062019184 0
-10 1.6972566e-05 0
-10 -2.4276083e-07 0
-10 -2.1861098e-10 0
-10 1.7663104e-12 0
-10 1.2838043e-15 0
-10 -8.152758e-18 0
-10 -1.7655167e-15 0
-10 4.1517786e-15 0
-10 -3.5738331e-15 0
-10 -5.9863397e-17 0
-10 3.4619069e-15 0
-10 -3.5528473e-15 0
-10 -1.4947923e-16 0
-10 7.0965641e-17 0
-10 3.6950254e-15 0
-10 -3.7000316e-15 0
-10 -1.2771132e-17 0
-10 1.4296578e-16 0
-10 1.3781733e-15 0
-10 -1.7673395e-12 0
-10 2.1860946e-10 0
-10 2.4276082e-07 0
-10 -1.6972566e-05 0
-10 -0.0062019184 0
-10 0.0062019184 0
-10 1.6972566e-05 0
-10 -2.4276083e-07 0
-10 -2.1861098e-10 0
-10 1.7663104e-12 0
-10 1.283804e-15 0
-10 -8.154577e-18 0
-10 -1.7655171e-15 0
-10 4.1517786e-15 0
-10 -3.5738333e-15 0
-10 -5.9868938e-17 0
-10 3.4619012e-15 0
-10 -3.5531412e-15 0
-10 -1.4947873e-16 0
-10 7.0965978e-17 0
-10 3.6950258e-15 0
-10 -3.7000316e-15 0
-10 -1.2771132e-17 0
-10 1.4296578e-16 0
-10 1.3781735e-15 0
-10 -1.7673395e-12 0
-10 2.1860946e-10 0
-10 2.4276082e-07 0
-10 -1.6972566e-05 0
-10 -0.0062019184 0
-10 0.0062019184 0
-10 1.6972566e-05 0
-10 -2.4276083e-07 0
-10 -2.1861098e-10 0
-10 1.76631e-12 0
-10 1.2841272e-15 0
-10 -8.0602585e-18 0
-10 -1.7660367e-15 0
-10 4.1517114e-15 0
-10 -3.5738297e-15 0
-10 -6.0186087e-17 0
-10 3.4615971e-15 0
-10 -3.5531252e-15 0
-10 -1.4955519e-16 0
-10 7.1395556e-17 0
-10 3.6948675e-15 0
-10 -3.6998706e-15 0
-10 -1.2791475e-17 0
-10 1.4302533e-16 0
-10 1.3776964e-15 0
-10 -1.7673395e-12 0
-10 2.1860946e-10 0
-10 2.4276082e-07 0
-10 -1.6972566e-05 0
-10 -0.0062019184 0
-10 0.0062019184 0
-10 1.6972566e-05 0
-10 -2.4276083e-07 0
-10 -2.1861098e-10 0
-10 1.7663099e-12 0
-10 1.2844809e-15 0
-10 -8.1791494e-18 0
-10 -1.7672007e-15 0
-10 4.1520599e-15 0
-10 -3.5740881e-15 0
-10 -6.0383315e-17 0
-10 3.4613882e-15 0
-10 -3.5545538e-15 0
-10 -1.4827555e-16 0
-10 7.1965321e-17 0
-10 3.6953723e-15 0
-10 -3.7002425e-15 0
-10 -1.2777806e-17 0
-10 1.4330578e-16 0
-10 1.3763982e-15 0
-10 -1.7673402e-12 0
-10 2.1860946e-10 0
-10 2.4276082e-07 0
-10 -1.6972566e-05 0
-10 -0.0062019184 0
-10 0.0062019183 0
-10 1.6972565e-05 0
-10 -2.4276082e-07 0
-10 -2.1861071e-10 0
-10 1.7663001e-12 0
-10 1.2838652e-15 0
-10 -8.0089311e-18 0
-10 -1.7655755e-15 0
-10 4.1517516e-15 0
-10 -3.5735493e-15 0
-10 -5.9628734e-17 0
-10 3.46235e-15 0
-10 -3.5524313e-15 0
-10 -1.5015657e-16 0
-10 7.1082705e-17 0
-10 3.6947679e-15 0
-10 -3.7005093e-15 0
-10 -1.2779552e-17 0
-10 1.436199e-16 0
-10 1.3776306e-15 0
-10 -1.7673394e-12 0
-10 2.1860921e-10 0
-10 2.4276082e-07 0
-10 -1.6972565e-05 0
-10 -0.0062019183 0
-9.9999998 0.0062019227 0
-9.9999998 1.6972446e-05 0
-9.9999998 -2.4276709e-07 0
-9.9999998 -2.1860101e-10 0
-9.9999998 1.7663364e-12 0
-9.9999998 1.2840047e-15 0
-9.9999998 -8.0058719e-18 0
-9.9999998 -1.7656255e-15 0
-9.9999998 4.1516541e-15 0
-9.9999998 -3.5735109e-15 0
-9.9999998 -5.9719187e-17 0
-9.9999998 3.4622048e-15 0
-9.9999998 -3.5523524e-15 0
-9.9999998 -1.5038622e-16 0
-9.9999998 7.1220401e-17 0
-9.9999998 3.6946954e-15 0
-9.9999998 -3.7006093e-15 0
-9.9999998 -1.2779267e-17 0
-9.9999998 1.4370736e-16 0
-9.9999998 1.3775555e-15 0
-9.9999998 -1.767379e-12 0
-9.9999998 2.1859936e-10 0
-9.9999998 2.4276709e-07 0
-9.9999998 -1.6972446e-05 0
-9.9999998 -0.0062019227 0
-10.000019 0.0062026064 0
-10.000017 1.7053634e-05 0
-10.000017 -2.4297737e-07 0
-10.000017 -2.1928923e-10 0
-10.000017 1.7680096e-12 0
-10.000017 1.2870043e-15 0
-10.000017 -8.2437055e-18 0
-10.000017 -1.7673926e-15 0
-10.000017 4.1521299e-15 0
-10.000017 -3.5743318e-15 0
-10.000017 -6.0839186e-17 0
-10.000017 3.4608643e-15 0
-10.000017 -3.5558361e-15 0
-10.000017 -1.4801755e-16 0
-10.000017 7.241757e-17 0
-10.000017 3.6963307e-15 0
-10.000017 -3.7012061e-15 0
-10.000017 -1.277985e-17 0
-10.000017 1.440294e-16 0
-10.000017 1.3744024e-15 0
-10.000017 -1.7690954e-12 0
-10.000017 2.1928755e-10 0
-10.000017 2.4297737e-07 0
-10.000017 -1.7053634e-05 0
-10.000019 -0.0062026064 0
-10.00586 0.005859941 0
-10.006203 1.8988995e-05 0
-10.006202 -2.3610246e-07 0
-10.006202 -2.4603752e-10 0
-10.006202 1.7295353e-12 0
-10.006202 1.3969795e-15 0
-10.006202 -8.6818765e-18 0
-10.006202 -1.7256383e-15 0
-10.006202 4.0465271e-15 0
-10.006202 -3.4846265e-15 0
-10.006202 -6.2109091e-17 0
-10.006202 3.3693582e-15 0
-10.006202 -3.4718426e-15 0
-10.006202 -1.4051657e-16 0
-10.006202 7.4002463e-17 0
-10.006202 3.6051769e-15 0
-10.006202 -3.6079369e-15 0
-10.006202 -1.2779847e-17 0
-10.006202 1.4144591e-16 0
-10.006202 1.2240697e-15 0
-10.006202 -1.7303935e-12 0
-10.006202 2.4603469e-10 0
-10.006202 2.3610247e-07 0
-10.006203 -1.8988995e-05 0
-10.00586 -0.005859941 0
-3.5381306 7.4849406 0
-6.6633816 7.4247971 0
-6.4683344 5.2027105 0
-9.9816169 0.014696776 0
11.381342 9.6297037 0
4.9261913 0.0010054816 0
4.9277939 -2.2535408e-06 0
4.9277933 -3.3327681e-06 0
4.9277933 8.0748843e-11 0
4.9277933 1.0189889e-10 0
4.9277933 -3.276657e-06 0
4.9277933 -3.2691855e-05 0
4.927792 -0.0029735501 0
4.9277933 3.3117567e-05 0
4.9277933 -1.4365937e-09 0
4.9277933 1.2502774e-11 0
4.9277933 -3.2680642e-13 0
4.9277933 -9.7010043e-11 0
4.9277939 2.2704977e-06 0
4.9261838 -0.0010244636 0
11.490261 -9.4844506 0
-9.9816879 -0.01166686 0
-6.4836802 -5.189015 0
-6.6633408 -7.4248248 0
-3.5374963 -7.4851511 0
2.6309683 -13.726702 0
-8.136341 -2.6071539 0
5.4442716 -9.7972895 0
7.499684 -6.032993 0
1.5610675 12.837678 0
-4.9277102 -0.0043282293 0
-4.9278482 -9.1229313e-06 0
-4.9278464 3.3012331e-06 0
-4.9278464 -7.7589551e-11 0
-4.9278464 -9.915935e-11 0
-4.9278464 3.2466998e-06 0
-4.9278464 3.1460144e-05 0
-4.9278451 0.0028702665 0
-4.9278464 -3.1857471e-05 0
-4.9278464 1.3172774e-09 0
-4.9278464 -9.7134462e-12 0
-4.9278464 -3.6093574e-13 0
-4.9278464 -1.8433134e-10 0
-4.9278482 9.1155351e-06 0
-4.9277107 0.0043601189 0
1.5694224 -12.848339 0
7.5009374 6.031312 0
5.4578481 9.7865927 0
-8.1363352 2.6071628 0
2.6309683 13.726702 0
9.3141284 0.07125394 0
-0.52395537 -3.3281883 0
-7.1007632 -6.4741038 0
-7.5190393 7.2677524 0
6.9561033 -0.063033347 0
5.0219738 -0.00098751009 0
5.022571 -5.9291113e-06 0
5.0225696 -2.1660488e-06 0
5.0225696 4.6314307e-11 0
5.0225696 5.7878806e-11 0
5.0225696 -2.1361571e-06 0
5.0225696 -1.7611469e-05 0
5.0225692 -0.0017366457 0
5.0225696 1.7830288e-05 0
5.0225696 -6.2520023e-10 0
5.0225696 1.2537085e-12 0
5.0225696 -2.8753097e-13 0
5.0225696 -1.4760127e-10 0
5.022571 5.9431735e-06 0
5.0219724 0.00097855527 0
6.9376798 0.1896781 0
-7.5202369 -7.2666839 0
-7.2204434 6.3441267 0
-0.52380611 3.3282939 0
9.314125 -0.071258304 0
0.34360548 -3.8241258 0
6.9828036 -10.489795 0
-8.9329117 5.0207593 0
9.2294632 -4.3148652 0
-7.1980949 0.034754229 0
-5.0216752 0.00045677586 0
-5.0226913 -7.3525535e-08 0
-5.0226923 1.9333984e-06 0