# vtk DataFile Version 4.0
hesp visualization file
ASCII
DATASET UNSTRUCTURED_GRID
POINTS 32 double
5.1964625 1.0772579 4
5.0114464 2.2318123 4
5.0114464 3.380498 4
5.1964625 4.5350523 4
6.4741748 0.60585628 4
5.9659292 1.9788063 4
5.9659292 3.6335039 4
6.4741748 5.006454 4
8.4654785 0.1468321 4
7.0839075 1.3687058 4
7.0839075 4.2436045 4
8.4654785 5.4654781 4
9.9063491 -0.66980966 4
9.9282616 1.7727392 4
9.9282616 3.839571 4
9.9063491 6.2821199 4
11.705961 -0.66980966 4
11.684049 1.7727392 4
11.684049 3.839571 4
11.705961 6.2821199 4
13.146832 0.1468321 4
14.528403 1.3687058 4
14.528403 4.2436045 4
13.146832 5.4654781 4
15.138135 0.60585628 4
15.646381 1.9788063 4
15.646381 3.6335039 4
15.138135 5.006454 4
16.415848 1.0772579 4
16.600864 2.2318123 4
16.600864 3.380498 4
16.415848 4.5350523 4
CELLS 0 0
CELL_TYPES 0
POINT_DATA 32
SCALARS m double
LOOKUP_TABLE default
1
1
1
1
1
1
1
1
1
1
1
1
1
1
1
1
1
1
1
1
1
1
1
1
1
1
1
1
1
1
1
1
VECTORS v double
-9.4843635 -0.033991519 0
-11.671947 0.24409804 0
-11.671947 -0.24409804 0
-9.4843635 0.033991519 0
-9.6559722 -2.1955012 0
-11.721658 -1.4414117 0
-11.721658 1.4414117 0
-9.6559722 2.1955012 0
-6.2844912 -8.7211878 0
-10.533587 -6.1270124 0
-10.533587 6.1270124 0
-6.2844912 8.7211878 0
-3.0277576 -7.8057225 0
-1.447722 -0.93678135 0
-1.447722 0.93678135 0
-3.0277576 7.8057225 0
3.0277576 -7.8057225 0
1.447722 -0.93678135 0
1.447722 0.93678135 0
3.0277576 7.8057225 0
6.2844912 -8.7211878 0
10.533587 -6.1270124 0
10.533587 6.1270124 0
6.2844912 8.7211878 0
9.6559722 -2.1955012 0
11.721658 -1.4414117 0
11.721658 1.4414117 0
9.6559722 2.1955012 0
9.4843635 -0.033991519 0
11.671947 0.24409804 0
11.671947 -0.24409804 0
9.4843635 0.033991519 0
