# vtk DataFile Version 4.0
hesp visualization file
ASCII
DATASET UNSTRUCTURED_GRID
POINTS 1250 double
34.017947 3.7998976 4
30.127479 2.2585448 4
33.4545 4.7587077 4
31.871737 3.9432732 4
30.173644 5.7829949 4
30.780174 6.7223847 4
31.336373 7.8588782 4
30.414578 8.9951809 4
30.415576 10.102161 4
30.41558 11.224619 4
30.415211 12.363197 4
30.370588 13.645209 4
31.202766 15.155893 4
30.368506 15.535219 4
30.41558 16.836952 4
30.41558 17.959393 4
30.415576 19.081852 4
30.40012 20.199952 4
30.634244 20.260944 4
30.17242 20.959823 4
31.787629 23.341318 4
32.070153 24.864896 4
33.740585 24.678514 4
30.122178 26.939576 4
33.884966 25.653972 4
30.396216 -6.4478394 4
34.284573 1.4909888 4
30.47728 0.30978361 4
31.909127 4.4659851 4
33.326448 6.0576202 4
31.401542 6.9206366 4
31.469091 7.5287021 4
31.121854 9.2163621 4
30.911134 10.103478 4
30.910225 11.224622 4
30.910369 12.335926 4
30.936455 13.325753 4
30.072564 14.130461 4
30.937652 15.861295 4
30.910223 16.836911 4
30.910225 17.959392 4
30.91102 19.080645 4
31.122445 19.963795 4
31.131487 21.477701 4
31.282752 22.270629 4
31.290559 22.542898 4
31.539731 24.570884 4
30.481088 28.871793 4
34.284565 27.693022 4
30.396216 35.631853 4
31.810092 0.65321564 4
32.183039 3.7947096 4
31.288344 5.7862908 4
32.069142 5.5347477 4
30.798847 5.0911716 4
31.228979 8.5516094 4
32.120686 10.416624 4
31.654908 8.7079787 4
31.741643 10.100042 4
31.741414 11.224612 4
31.74126 12.356809 4
31.714627 13.599896 4
32.578952 15.02824 4
31.71333 15.581195 4
31.741411 16.836946 4
31.741413 17.959399 4
31.741626 19.083827 4
31.543881 20.613307 4
32.162988 18.882056 4
30.936492 20.881905 4
30.925288 23.641381 4
33.605917 23.944167 4
31.6072 23.782704 4
32.208312 25.416964 4
31.810297 28.530717 4
31.640559 -1.615366 4
30.240228 -2.7732806 4
32.074683 2.8653079 4
32.93115 3.9768716 4
30.27792 6.3872633 4
31.153843 7.6509262 4
32.582317 8.1599671 4
32.254014 9.1095919 4
32.937565 10.917269 4
32.236256 11.224561 4
32.236256 12.342633 4
32.242477 13.395469 4
31.336563 14.354105 4
32.242847 15.790189 4
32.236234 16.836921 4
32.236247 17.959438 4
33.148549 18.304648 4
32.249781 20.087224 4
32.582328 21.054953 4
30.28793 22.072457 4
32.126586 24.404507 4
32.921504 25.280958 4
32.07012 26.310354 4
30.240231 31.957293 4
31.640559 30.79938 4
33.657193 4.978765 4
30.708983 3.71309 4
30.135605 1.5458467 4
34.970245 4.5671465 4
33.445532 7.0576994 4
31.615467 6.6198776 4
32.462197 7.8313905 4
32.632204 8.9263298 4
32.763753 9.7853601 4
33.067479 11.224302 4
33.067538 12.350627 4
33.061101 13.531341 4
32.99857 15.424944 4
33.062131 15.667298 4
33.06756 16.836937 4
33.067586 17.959712 4
32.552486 19.245363 4
32.583792 20.245986 4
32.507754 21.519591 4
31.745214 22.384859 4
31.988345 22.199796 4
34.109546 23.86603 4
30.136109 27.633957 4
30.704169 25.470499 4
34.157841 25.222085 4
30.872517 -1.1684816 4
32.611614 -1.6264642 4
35.593864 5.2470544 4
31.933707 6.397733 4
33.892866 6.5675265 4
32.488379 7.4803455 4
33.593321 8.0385244 4
33.562585 8.9778026 4
33.562576 10.102168 4
33.56254 11.224618 4
33.562545 12.346059 4
33.563057 13.446471 4
33.611674 13.881945 4
33.563123 15.738402 4
33.562544 16.836928 4
33.562533 17.959401 4
33.562577 19.081841 4
33.562583 20.205155 4
33.592702 21.147411 4
32.552836 22.31313 4
34.255236 21.709117 4
31.876844 22.794346 4
35.616045 23.941195 4
32.611781 30.810523 4
30.872514 30.352496 4
31.864657 1.6642695 4
36.27836 2.9118868 4
31.355028 2.5198583 4
33.018769 4.8721088 4
32.246041 5.8675952 4
34.43814 6.875284 4
34.345148 7.7433656 4
34.394041 8.9809998 4
34.394218 10.102153 4
34.394224 11.224621 4
34.394223 12.347835 4
34.393583 13.487622 4
33.810395 14.884853 4
34.393564 15.695913 4
34.394224 16.836933 4
34.394224 17.959393 4
34.394218 19.08186 4
34.394048 20.203788 4
34.346037 21.440234 4
33.759861 22.465187 4
32.555855 22.943554 4
33.303615 24.540741 4
31.321693 26.629414 4
36.276994 26.271373 4
31.865257 27.519537 4
37.551765 -3.9148858 4
34.356285 3.7306605 4
35.740798 2.3722444 4
33.873559 5.9952198 4
35.564976 5.5046795 4
34.871065 6.7393659 4
34.883237 7.857206 4
34.889124 8.9795741 4
34.889115 10.102158 4
34.889115 11.22462 4
34.889115 12.346958 4
34.889136 13.465159 4
35.352069 14.179207 4
34.889136 15.718988 4
34.889115 16.83693 4
34.889115 17.959393 4
34.889115 19.081855 4
34.889124 20.204312 4
34.891712 21.321143 4
34.871508 22.42504 4
36.40439 23.574466 4
33.686262 22.885711 4
35.739336 26.811044 4
34.346396 25.449568 4
37.551765 33.098899 4
32.845667 3.2595782 4
33.677715 1.9251537 4
36.71389 2.8155382 4
36.523285 5.2578649 4
36.294242 6.4701508 4
35.714938 6.7557896 4
35.721436 7.8587546 4
35.721555 8.9795071 4
35.721404 10.102158 4
35.721404 11.22462 4
35.721404 12.347167 4
35.72138 13.472729 4
35.213932 14.813294 4
35.721381 15.711212 4
35.721404 16.836931 4
35.721404 17.959393 4
35.721404 19.081855 4
35.721558 20.204586 4
35.721631 21.335229 4
35.714019 22.441347 4
35.487621 22.93465 4
36.635021 23.82265 4
36.698713 26.383468 4
33.677786 27.258554 4
32.633411 25.665889 4
31.987885 1.1389993 4
34.830296 -1.2328754 4
35.365334 2.9698352 4
35.965104 4.5043424 4
35.870391 8.7143879 4
36.242439 6.8326368 4
36.215746 7.8392058 4
36.215771 8.9796061 4
36.215842 10.102158 4
36.215842 11.22462 4
36.215842 12.347076 4
36.215842 13.469097 4
36.229814 14.47288 4
36.215843 15.714931 4
36.215842 16.836931 4
36.215842 17.959393 4
36.215842 19.081855 4
36.215763 20.20441 4
36.215744 21.344822 4
36.216139 22.487308 4
35.879952 20.465651 4
36.002446 24.658718 4
35.366977 26.21262 4
34.830297 30.416887 4
31.987783 28.050744 4
32.288755 0.79744123 4
35.819916 1.8033645 4
36.788178 5.0470951 4
35.635952 3.898701 4
37.075484 5.2839611 4
37.057959 6.7716446 4
37.039926 7.8682561 4
37.048912 8.9797024 4
37.048918 10.102158 4
37.048918 11.22462 4
37.048918 12.347086 4
37.048918 13.46985 4
37.033719 14.676089 4
37.048918 15.714156 4
37.048918 16.836931 4
37.048918 17.959393 4
37.048918 19.081855 4
37.048912 20.204315 4
37.040156 21.315711 4
37.056982 22.407413 4
36.970159 23.897302 4
35.672732 25.371636 4
36.67355 24.192631 4
35.81943 27.381217 4
32.288748 28.38657 4
33.92715 0.90665723 4
37.02724 1.0862268 4
37.155349 7.3569109 4
36.903931 3.6769245 4
36.608378 5.6259976 4
37.542943 6.7083904 4
37.542608 7.8572313 4
37.542615 8.9796966 4
37.542615 10.102158 4
37.542615 11.22462 4
37.542615 12.347083 4
37.542615 13.469526 4
37.54272 14.581692 4
37.542615 15.714488 4
37.542615 16.836931 4
37.542615 17.959393 4
37.542615 19.081855 4
37.542615 20.204317 4
37.542608 21.326781 4
37.542978 22.476238 4
36.643268 23.561835 4
36.901047 25.508376 4
37.152099 21.828266 4
37.027413 28.099534 4
33.927155 28.277362 4
34.992221 1.1274607 4
35.113505 1.8352515 4
38.23353 2.6035175 4
38.59693 5.2005935 4
37.747835 5.5649347 4
38.370716 6.7514598 4
38.376477 7.8572279 4
38.376488 8.9796961 4
38.376489 10.102158 4
38.376489 11.22462 4
38.376489 12.347083 4
38.376489 13.469557 4
38.37638 14.598946 4
38.376489 15.714456 4
38.376489 16.836931 4
38.376489 17.959393 4
38.376489 19.081855 4
38.376488 20.204317 4
38.376477 21.326785 4
38.370626 22.432159 4
37.746803 23.565733 4
38.602332 23.986335 4
38.228265 26.573287 4
35.113972 27.349664 4
34.992222 28.056551 4
36.030369 0.84115751 4
37.732633 1.5286739 4
37.11219 3.3226822 4
37.948368 4.4426294 4
38.879232 5.715151 4
38.869355 6.734822 4
38.869353 7.857232 4
38.869353 8.9796964 4
38.869353 10.102158 4
38.869353 11.22462 4
38.869353 12.347083 4
38.869353 13.469545 4
38.869353 14.59163 4
38.869353 15.714469 4
38.869353 16.836931 4
38.869353 17.959393 4
38.869353 19.081855 4
38.869353 20.204317 4
38.869353 21.326781 4
38.869355 22.449188 4
38.869434 23.584309 4
37.948198 24.739221 4
37.111623 25.856994 4
37.733806 27.656377 4
36.030496 28.341056 4
37.330826 1.1299653 4
37.33959 2.0384569 4
38.18722 2.9858102 4
39.087622 4.6601305 4
39.691479 5.5432469 4
39.703829 6.7347409 4
39.703837 7.8572358 4
39.703837 8.9796964 4
39.703837 10.102158 4
39.703837 11.22462 4
39.703837 12.347083 4
39.703837 13.469545 4
39.703837 14.592249 4
39.703837 15.714469 4
39.703837 16.836931 4
39.703837 17.959393 4
39.703837 19.081855 4
39.703837 20.204317 4
39.703837 21.326777 4
39.703829 22.449272 4
39.702316 23.563882 4
39.086713 24.529715 4
38.187318 26.198987 4
37.342157 27.152643 4
37.331299 28.05361 4
38.359373 1.1265589 4
38.358506 2.2459315 4
39.727491 4.4948337 4
40.331794 4.1409371 4
40.19604 5.6161428 4
40.196022 6.7347707 4
40.196022 7.8572343 4
40.196022 8.9796964 4
40.196022 10.102158 4
40.196022 11.22462 4
40.196022 12.347083 4
40.196022 13.469545 4
40.196022 14.592007 4
40.196022 15.714469 4
40.196022 16.836931 4
40.196022 17.959393 4
40.196022 19.081855 4
40.196022 20.204317 4
40.196022 21.326779 4
40.196022 22.449243 4
40.196023 23.571573 4
40.323566 25.03442 4
39.729174 24.687478 4
38.358561 26.938139 4
38.359373 28.057454 4
39.481854 1.1265446 4
39.481872 2.2449563 4
41.466994 2.5455047 4
40.87729 4.7125216 4
41.03072 5.6098867 4
41.030743 6.7347733 4
41.030743 7.8572343 4
41.030743 8.9796964 4
41.030743 10.102158 4
41.030743 11.22462 4
41.030743 12.347083 4
41.030743 13.469545 4
41.030743 14.592007 4
41.030743 15.714469 4
41.030743 16.836931 4
41.030743 17.959393 4
41.030743 19.081855 4
41.030743 20.204317 4
41.030743 21.326779 4
41.030743 22.44924 4
41.030735 23.571747 4
40.886491 24.475961 4
41.465144 26.639708 4
39.481872 26.939057 4
39.481854 28.057469 4
40.604317 1.1265449 4
40.604485 2.2456773 4
40.600652 3.360246 4
41.522933 4.4723306 4
41.522628 5.6122664 4
41.522628 6.7347723 4
41.522628 7.8572343 4
41.522628 8.9796964 4
41.522628 10.102158 4
41.522628 11.22462 4
41.522628 12.347083 4
41.522628 13.469545 4
41.522628 14.592007 4
41.522628 15.714469 4
41.522628 16.836931 4
41.522628 17.959393 4
41.522628 19.081855 4
41.522628 20.204317 4
41.522628 21.326779 4
41.522628 22.449241 4
41.522628 23.571748 4
41.52292 24.711254 4
40.600679 25.823698 4
40.604488 26.938328 4
40.604317 28.057468 4
41.726779 1.1265441 4
41.726629 2.2450665 4
41.726754 3.3673764 4
[...]
POINT_DATA 1250
SCALARS m double
LOOKUP_TABLE default
1
1
1
1
1
1
1
1
1
1
1
1
1
1
1
1
1
1
1
1
1
1
1
1
1
1
1
1
1
1
1
1
1
1
1
1
1
1
1
1
1
1
1
1
1
1
1
1
1
1
1
1
1
1
1
1
1
1
1
1
1
1
1
1
1
1
1
1
1
1
1
1
1
1
1
1
1
1
1
1
1
1
1
1
1
1
1
1
1
1
1
1
1
1
1
1
1
1
1
1
1
1
1
1
1
1
1
1
1
1
1
1
1
1
1
1
1
1
1
1
1
1
1
1
1
1
1
1
1
1
1
1
1
1
1
1
1
1
1
1
1
1
1
1
1
1
1
1
1
1
1
1
1
1
1
1
1
1
1
1
1
1
1
1
1
1
1
1
1
1
1
1
1
1
1
1
1
1
1
1
1
1
1
1
1
1
1
1
1
1
1
1
1
1
1
1
1
1
1
1
1
1
1
1
1
1
1
1
1
1
1
1
1
1
1
1
1
1
1
1
1
1
1
1
1
1
1
1
1
1
1
1
1
1
1
1
1
1
1
1
1
1
1
1
1
1
1
1
1
1
1
1
1
1
1
1
1
1
1
1
1
1
1
1
1
1
1
1
1
1
1
1
1
1
1
1
1
1
1
1
1
1
1
1
1
1
1
1
1
1
1
1
1
1
1
1
1
1
1
1
1
1
1
1
1
1
1
1
1
1
1
1
1
1
1
1
1
1
1
1
1
1
1
1
1
1
1
1
1
1
1
1
1
1
1
1
1
1
1
1
1
1
1
1
1
1
1
1
1
1
1
1
1
1
1
1
1
1
1
1
1
1
1
1
1
1
1
1
1
1
1
1
1
1
1
1
1
1
1
1
1
1
1
1
1
1
1
1
1
1
1
1
1
1
1
1
1
1
1
1
1
1
1
1
1
1
1
1
1
1
1
1
1
1
1
1
1
1
1
1
1
1
1
1
1
1
1
1
1
1
1
1
1
1
1
1
1
1
1
1
1
1
1
1
1
1
1
1
1
1
1
1
1
1
1
1
1
1
1
1
1
1
1
1
1
1
1
1
1
1
1
1
1
1
1
1
1
1
1
1
1
1
1
1
1
1
1
1
1
1
1
1
1
1
1
1
1
1
1
1
1
1
1
1
1
1
1
1
1
1
1
1
1
1
1
1
1
1
1
1
1
1
1
1
1
1
1
1
1
1
1
1
1
1
1
1
1
1
1
1
1
1
1
1
1
1
1
1
1
1
1
1
1
1
1
1
1
1
1
1
1
1
1
1
1
1
1
1
1
1
1
1
1
1
1
1
1
1
1
1
1
1
1
1
1
1
1
1
1
1
1
1
1
1
1
1
1
1
1
1
1
1
1
1
1
1
1
1
1
1
1
1
1
1
1
1
1
1
1
1
1
1
1
1
1
1
1
1
1
1
1
1
1
1
1
1
1
1
1
1
1
1
1
1
1
1
1
1
1
1
1
1
1
1
1
1
1
1
1
1
1
1
1
1
1
1
1
1
1
1
1
1
1
1
1
1
1
1
1
1
1
1
1
1
1
1
1
1
1
1
1
1
1
1
1
1
1
1
1
1
1
1
1
1
1
1
1
1
1
1
1
1
1
1
1
1
1
1
1
1
1
1
1
1
1
1
1
1
1
1
1
1
1
1
1
1
1
1
1
1
1
1
1
1
1
1
1
1
1
1
1
1
1
1
1
1
1
1
1
1
1
1
1
1
1
1
1
1
1
1
1
1
1
1
1
1
1
1
1
1
1
1
1
1
1
1
1
1
1
1
1
1
1
1
1
1
1
1
1
1
1
1
1
1
1
1
1
1
1
1
1
1
1
1
1
1
1
1
1
1
1
1
1
1
1
1
1
1
1
1
1
1
1
1
1
1
1
1
1
1
1
1
1
1
1
1
1
1
1
1
1
1
1
1
1
1
1
1
1
1
1
1
1
1
1
1
1
1
1
1
1
1
1
1
1
1
1
1
1
1
1
1
1
1
1
1
1
1
1
1
1
1
1
1
1
1
1
1
1
1
1
1
1
1
1
1
1
1
1
1
1
1
1
1
1
1
1
1
1
1
1
1
1
1
1
1
1
1
1
1
1
1
1
1
1
1
1
1
1
1
1
1
1
1
1
1
1
1
1
1
1
1
1
1
1
1
1
1
1
1
1
1
1
1
1
1
1
1
1
1
1
1
1
1
1
1
1
1
1
1
1
1
1
1
1
1
1
1
1
1
1
1
1
1
1
1
1
1
1
1
1
1
1
1
1
1
1
1
1
1
1
1
1
1
1
1
1
1
1
1
1
1
1
1
1
1
1
1
1
1
1
1
1
1
1
1
1
1
1
1
1
1
1
1
1
1
1
1
1
1
1
1
1
1
1
1
1
1
1
1
1
1
1
1
1
1
1
1
1
1
1
1
1
1
1
1
1
1
1
1
1
1
1
1
1
1
1
1
1
1
1
1
1
1
1
1
1
1
1
1
1
1
1
1
1
1
1
1
1
1
1
1
1
1
1
1
1
1
1
1
1
1
1
1
1
1
1
1
1
1
1
1
1
1
1
1
1
1
1
1
1
1
1
1
1
1
1
1
1
1
1
1
1
1
1
1
1
1
1
1
1
1
1
1
1
1
1
1
1
1
1
1
1
1
1
1
1
1
1
1
1
1
1
1
1
1
1
1
1
1
1
1
1
1
1
1
1
1
1
1
1
1
1
1
1
1
1
1
1
1
1
1
1
1
1
1
1
1
1
1
1
1
1
1
1
1
1
1
1
1
1
1
1
1
1
1
1
1
1
1
1
1
1
1
1
1
1
1
1
1
VECTORS v double
3.6114227 7.5466968 0
-4.1986932 -8.7019074 0
8.1275839 11.568166 0
-7.6925268 -7.0691641 0
-3.3909007 -4.5594904 0
0.95606815 0.85590822 0
10.699608 0.65565003 0
9.9866398 0.45128252 0
10.010405 8.3820542e-06 0
10.010516 -4.6490519e-05 0
9.9998528 0.4536919 0
8.7066028 4.9231996 0
8.9785606 4.4036172 0
8.6475114 -5.0157612 0
10.010498 0.00058696527 0
10.010517 -5.1649333e-07 0
10.010415 2.7563045e-05 0
2.189503 -2.6550599 0
8.8275719 -10.80647 0
-2.3797387 -9.1117006 0
7.2424744 -5.1682233 0
8.2204687 5.6651555 0
14.998615 -5.5102594 0
0.342185 8.0503771 0
-4.5586868 8.9044796 0
-2.6331935 -13.726701 0
6.0808132 4.5786958 0
5.4279419 -9.7858949 0
10.148187 1.3076699 0
12.791055 -3.2771789 0
-7.5764977 2.1789476 0
-3.7415921 -5.2793214 0
-3.8559315 7.9849626 0
-9.9954674 0.042351806 0
-10.012797 6.2497991e-05 0
-10.008528 -0.2995778 0
-9.2492473 -3.9081623 0
-9.3733882 -3.5823668 0
-9.2142264 3.9885653 0
-10.012849 -0.00063104842 0
-10.012809 -3.86074e-05 0
-9.9978527 -0.038777335 0
-3.8120655 -8.035516 0
-9.7810884 2.1611956 0
-2.9221242 2.150533 0
-9.8258474 3.6336523 0
-8.2208758 -6.4190369 0
5.4417176 9.7818404 0
6.080659 -4.5788436 0
-2.6331936 13.726701 0
0.068363071 -9.4806573 0
6.7954259 7.9570488 0
-8.6827105 5.9705168 0
2.6677196 0.38573276 0
8.5301752 -5.4576934 0
-11.424224 2.5329933 0
-1.9040982 9.5571385 0
13.639855 1.5567426 0
10.023557 -0.044268603 0
10.008654 -0.00045352901 0
10.004124 0.2815349 0
9.2400044 3.7365995 0
9.3666523 3.4260174 0
9.2011758 -3.8215598 0
10.008422 0.00044317571 0
10.008544 0.00025534606 0
10.026738 0.043474301 0
4.1068471 10.112558 0
-1.331443 -7.3937254 0
2.8557544 -13.350117 0
10.004448 0.26760979 0
5.7290174 4.1866753 0
-0.35093527 5.4936369 0
7.1943962 -7.5029834 0
0.075518016 9.4757033 0
-0.49773041 -3.682452 0
6.8514129 -10.619301 0
-4.7990313 -5.3714629 0
5.9888041 -1.0697555 0
-13.300418 -3.0376731 0
2.6791583 11.334454 0
6.4866516 11.835019 0
-8.5547078 5.1663228 0
8.6656803 18.926102 0
-10.012417 -0.0037628193 0
-10.013978 -0.11694654 0
-9.8302794 -1.9708607 0
-9.8551918 -1.8134213 0
-9.8182321 2.0131825 0
-10.014625 -0.00029102067 0
-10.013681 0.0020644976 0
14.53102 -16.759032 0
-8.5084212 -5.1812488 0
6.0016376 -8.5785901 0
-9.9345459 5.1637379 0
3.0896568 10.173804 0
6.0419567 2.1384 0
-4.8232464 5.3297939 0
6.8514185 10.619307 0
-0.49772964 3.6824535 0
-7.2478719 9.6423284 0
8.2022461 4.3297982 0
-8.3704992 -4.917838 0
9.1633534 -5.1110458 0
-6.2938981 12.520027 0
-2.7982136 -8.1025448 0
-9.0694442 4.3160656 0
4.1428101 -4.0577045 0
-0.81787113 -9.1027399 0
9.9915087 -0.05241531 0
10.006762 0.10547142 0
9.825788 1.8144538 0
-3.8356973 3.207149 0
10.701941 5.0541332 0
10.007395 0.00019608418 0
10.015391 0.057067717 0
-6.8118334 4.7598753 0
3.5589927 4.072366 0
-6.1768932 7.3455258 0
-0.55866837 -2.6885867 0
-6.1139196 -7.896877 0
0.65268081 -11.872637 0
-8.3969734 4.892413 0
8.1586606 -4.3156614 0
5.9509152 -6.5662201 0
-1.1233224 -6.3271671 0
-1.9940472 -10.927233 0
6.5508157 8.0030711 0
-6.9596936 10.75069 0
2.7262271 -3.9972147 0
-9.5506222 -6.1337651 0
-9.0881851 4.6310892 0
-10.006301 -0.048577719 0
-10.007011 0.00027637302 0
-10.01624 -0.00045115495 0
-10.015365 -0.026413076 0
-10.000701 -0.57165972 0
2.788476 -9.0358038 0
-9.9998079 0.62320773 0
-10.015406 -8.9534725e-05 0
-10.018425 0.0024448942 0
-10.00688 -0.00075971485 0
-10.006274 0.021281589 0
-9.1058622 -4.580819 0
-10.897143 -1.3067927 0
3.9876759 -9.0646056 0
-7.638127 -10.767678 0
6.6512599 -9.0956243 0
-1.9934615 10.9274 0
-1.1233286 6.3271706 0
-2.3894206 9.4893909 0
1.6712354 3.5599816 0
-6.409807 -6.8670023 0
6.5988972 5.7332761 0
-14.69454 2.5907475 0
4.1433953 3.0914046 0
8.9452854 -3.7521282 0
10.006168 0.040679454 0
10.007647 -0.00017210502 0
10.0077 -8.1056419e-07 0
10.007688 0.022975733 0
9.9891396 0.54331105 0
-9.4626419 3.4749644 0
9.9890969 -0.55748556 0
10.007718 6.1709759e-05 0
10.007681 7.0134138e-06 0
10.007644 0.00015800222 0
10.006295 -0.016987944 0
9.0488905 3.5015094 0
-10.139247 0.13757899 0
-11.599067 -7.5238552 0
6.1943562 -4.4791207 0
-6.8570336 6.4048207 0
1.6479271 -3.5595937 0
-2.3574221 -9.5009571 0
4.8370531 -9.9977527 0
-5.9520587 -7.3423914 0
1.7455044 -3.4273309 0
-3.6139336 4.8206217 0
-3.7321161 -3.339661 0
-10.199391 -0.059697149 0
-10.107201 -0.00067353402 0
-10.014572 -0.0031739025 0
-10.015113 -5.6500179e-06 0
-10.015118 1.2144296e-07 0
-10.015117 -0.0031494137 0
-10.014142 -0.11207015 0
4.9400756 -9.6354911 0
-10.014344 0.11600966 0
-10.015118 -1.3588098e-05 0
-10.01512 2.5529722e-07 0
-10.015113 5.145948e-06 0
-10.014594 -4.982594e-05 0
-9.952785 -0.18096002 0
-10.172625 -0.42685665 0
-6.9613628 0.50952587 0
-4.8516922 -6.9654155 0
1.7404567 3.4241445 0
-5.3978074 7.8354232 0
4.8370532 9.9977527 0
-1.2906373 -6.4942583 0
-9.8589382 -1.5961064 0
6.0687401 -7.2164067 0
-6.1506144 7.2547299 0
2.7194994 -3.191859 0
9.948222 0.38578572 0
10.016616 0.051989449 0
10.012989 -0.0031785775 0
10.009139 -2.1331929e-05 0
10.009135 -2.3502372e-08 0
10.009134 0.0026580103 0
10.008164 0.098456681 0
-5.4903945 7.1647273 0
10.008428 -0.10007396 0
10.009134 1.2077671e-05 0
10.009135 -3.34771e-08 0
10.009139 2.136145e-05 0
10.014921 0.0094743656 0
10.014854 0.20626757 0
9.9310127 0.039536589 0
-8.0775662 -5.7671019 0
4.5926311 -1.3208637 0
6.0160987 7.2761265 0
-9.8585887 1.5946476 0
-4.1908812 3.0479647 0
1.5179454 -4.2511787 0
-3.93325 -8.2576487 0
2.685481 -3.3827862 0
-0.27641124 -0.41205901 0
-1.2107105 17.646732 0
-7.3912624 13.89477 0
-10.009721 -0.45800178 0
-10.029758 -0.014336686 0
-10.014094 -1.8201255e-05 0
-10.014089 -1.5678406e-08 0
-10.01409 -0.0001524139 0
-10.014119 -0.011227471 0
-9.6010011 -3.054937 0
-10.014053 0.011776164 0
-10.014089 -1.408625e-06 0
-10.014089 7.5400586e-09 0
-10.014094 1.8615487e-05 0
-10.031623 0.016044754 0
-10.009952 0.45794636 0
-9.9836214 1.0604427 0
-1.2642381 -17.720472 0
0.12025195 -0.10250482 0
2.6963968 3.3735383 0
-3.9332476 8.2576429 0
1.4832508 4.2954647 0
-11.534778 -1.050895 0
-9.9908243 -1.0975489 0
2.3148843 2.0191406 0
-7.3208492 -7.2872947 0
11.589106 0.13275955 0
10.130936 1.0418256 0
9.8439337 0.34893938 0
10.010725 0.00017199627 0
10.010985 -4.0430429e-06 0
10.010988 3.3498425e-09 0
10.010988 0.00012623974 0
10.01096 0.0095494411 0
9.5895544 2.6019246 0
10.010994 -0.0098415902 0
10.010988 1.6223666e-06 0
10.010988 -3.3195291e-09 0
10.010985 4.1991318e-06 0
10.010712 -3.9927616e-05 0
9.8462812 -0.35034355 0
10.120852 -1.1804607 0
9.0872044 -4.6694313 0
-6.7424344 8.4922922 0
-7.6548494 0.54605646 0
-9.9958728 1.1043241 0
-11.535809 1.0502036 0
-7.981882 -7.1926261 0
-9.7894536 -5.4836802 0
-0.790636 15.742746 0
-10.920248 0.064640978 0
-10.213219 -0.14327118 0
-10.003447 -0.66292997 0
-10.013376 -0.0016028631 0
-10.012772 -2.0470171e-06 0
-10.012764 -5.733384e-07 0
-10.012763 -1.1371797e-09 0
-10.012763 -2.586589e-07 0
-10.012758 -0.00047688431 0
-10.007945 -0.26055748 0
-10.01277 0.00048392264 0
-10.012763 -2.8334171e-07 0
-10.012763 5.7669761e-10 0
-10.012764 6.1112478e-07 0
-10.012773 2.6764085e-06 0
-10.013362 0.0015357492 0
-10.002208 0.67844186 0
7.2850067 -4.8041211 0
-10.989388 -0.023249953 0
-0.78709749 -15.718535 0
-9.7617858 5.5805012 0
-7.9817262 7.1928316 0
-9.9973985 0.020427729 0
-8.955602 -3.4331917 0
3.7093279 1.4352368 0
4.0651124 5.5714817 0
-9.9870447 -0.5604823 0
9.9251517 0.53612596 0
10.012462 -0.00024410066 0
10.012658 -9.546187e-06 0
10.012665 8.6467828e-11 0
10.012665 4.1414047e-11 0
10.012665 1.5861025e-07 0
10.012664 0.00038899169 0
10.009684 0.21783741 0
10.012666 -0.00040244604 0
10.012665 1.1835245e-07 0
10.012665 -8.2258478e-11 0
10.012665 -1.5565559e-10 0
10.012657 9.1905468e-06 0
10.012461 0.00024770305 0
9.9246771 -0.54889315 0
-10.000247 -0.065667064 0
4.1115032 -5.5511066 0
3.6495338 -1.5532778 0
-8.9515838 3.4412133 0
-9.9973888 -0.020462688 0
-11.480814 -4.9510317 0
-1.4144126 -6.8590286 0
-6.2942237 -6.6613034 0
-10.041546 -0.29701607 0
-9.7189929 2.6054381 0
-10.010954 0.0013897048 0
-10.011572 -5.9944618e-05 0
-10.011568 -2.0097684e-07 0
-10.011567 1.1663706e-10 0
-10.011567 -2.3842235e-11 0
-10.011567 -1.7438728e-08 0
-10.011567 -5.0316082e-07 0
-10.011548 -0.0093640395 0
-10.011568 -8.1635124e-07 0
-10.011567 -6.7362513e-08 0
-10.011567 2.3152955e-11 0
-10.011567 -1.1996499e-10 0
-10.011568 1.997745e-07 0
-10.011572 6.2107793e-05 0
-10.010935 -0.0015564098 0
-10.008403 0.32635765 0
-10.043422 0.27809005 0
-6.252254 6.5956854 0
-1.4063644 6.8679855 0
-11.478348 4.9194339 0
6.06196 0.68465037 0
-8.8984685 -3.7715686 0
-9.8333192 -2.2583877 0
-9.8163199 1.9936857 0
9.701394 -2.1733704 0
10.013726 -0.0010029477 0
10.013802 4.5710605e-05 0
10.013808 -2.579499e-10 0
10.013808 1.2938233e-11 0
10.013808 -3.2777816e-13 0
10.013808 3.5112511e-09 0
10.013808 -9.0321594e-08 0
10.013804 0.0077170289 0
10.013808 -1.0426325e-07 0
10.013808 5.8140747e-09 0
10.013808 7.9184969e-13 0
10.013808 -1.191381e-11 0
10.013808 3.9962139e-10 0
10.013802 -4.796637e-05 0
10.013745 0.0010224782 0
9.9989363 -0.25209614 0
-9.8276018 -1.9255075 0
-9.8350906 2.2682655 0
-8.8570891 3.8741737 0
6.0381821 -0.7575504 0
-10.001405 0.0094873674 0
-10.065513 0.092305781 0
-6.3875402 8.618016 0
-5.9684335 -8.8591746 0
-10.008801 0.095174902 0
-10.010767 -3.5721928e-05 0
-10.010772 2.4032755e-07 0
-10.010772 -2.7550909e-11 0
-10.010772 -1.5813332e-12 0
-10.010772 -2.738713e-13 0
-10.010772 -4.5057032e-10 0
-10.010772 -3.1732745e-08 0
-10.010772 3.5306049e-06 0
-10.010772 -3.0642909e-08 0
-10.010772 -4.401637e-10 0
-10.010772 5.3014435e-13 0
-10.010772 1.7019481e-12 0
-10.010772 2.7484097e-11 0
-10.010772 -4.7922305e-08 0
-10.010771 4.2609806e-05 0
-10.01056 -0.0031099616 0
-6.2206195 8.6425584 0
-6.3733869 -8.6308272 0
-10.060916 -0.085748644 0
-10.001421 -0.0094966554 0
-10.000012 0.0085517189 0
-9.9997914 -0.0001645731 0
6.2911991 -6.7170707 0
5.7374732 7.2107498 0
10.013818 -0.077895488 0
10.014303 3.4610871e-05 0
10.014304 -5.9830092e-08 0
10.014304 -3.446855e-12 0
10.014304 6.7737047e-17 0
10.014304 -6.0710455e-14 0
10.014304 -2.3562892e-14 0
10.014304 -5.5702881e-09 0
10.014304 2.7075576e-08 0
10.014304 -6.2607022e-09 0
10.014304 9.873384e-14 0
10.014304 1.2064772e-13 0
10.014304 -2.8463884e-15 0
10.014304 9.5871963e-12 0
10.014304 3.1545315e-09 0
10.014303 -3.3735865e-05 0
10.014215 0.0020478766 0
6.0008097 -7.0484111 0
6.2764187 6.7276112 0
-9.9997891 0.00016326867 0
-10.000012 -0.0085516628 0
-9.9999944 0.0085689563 0
-9.9929392 0.017710491 0
-10.048098 -0.11674649 0
-9.9946499 -0.44020913 0
-10.010463 -0.0011390358 0
-10.010448 -2.7447241e-07 0
-10.010448 4.1273543e-09 0
-10.010448 -1.2647889e-12 0
-10.010448 9.5774238e-15 0
-10.010448 -5.3075263e-14 0
-10.010448 -8.18988e-14 0
-10.010448 -8.5453764e-11 0
-10.010448 2.8522267e-10 0
-10.010448 -8.5121037e-11 0
-10.010448 1.1357893e-13 0
-10.010448 1.0223518e-13 0
-10.010448 -5.3031451e-15 0
-10.010448 1.5249511e-12 0
-10.010448 1.6092705e-10 0
-10.010448 5.7900858e-07 0
-10.010466 0.0011493319 0
-9.9951702 0.4293997 0
-10.047755 0.11569988 0
-9.9928375 -0.017923633 0
-9.9999943 -0.0085690966 0
-10.000009 0.0085623183 0
-10.026414 0.026259299 0
-10.000969 -0.00086908381 0
10.002894 0.35961303 0
10.01149 0.00090502517 0
10.011491 3.7999387e-07 0
10.011491 3.4477826e-10 0
10.011491 -6.7642086e-14 0
10.011491 5.8065941e-15 0
10.011491 -4.9870962e-14 0
10.011491 -8.9273564e-14 0
10.011491 -1.3803231e-13 0
10.011491 -1.5822731e-13 0
10.011491 1.2534512e-13 0
10.011491 9.0293637e-14 0
10.011491 9.4876252e-14 0
10.011491 -5.2032316e-15 0
10.011491 -7.1286219e-15 0
10.011491 -2.767004e-10 0
10.011491 -2.959409e-07 0
10.01149 -0.00094086089 0
10.003296 -0.3508356 0
-10.000959 0.00085334982 0
-10.026392 -0.026008805 0
-10.000009 -0.0085623636 0
-10.000002 0.0085387045 0
-10.00002 -2.2912183e-06 0
-10.000043 4.3240494e-05 0
-10.009389 0.00021123796 0
-10.009468 9.3762336e-08 0
-10.009467 -2.3665152e-08 0
-10.009467 -5.3564997e-11 0
-10.009467 -2.5256755e-14 0
-10.009467 5.6956871e-15 0
-10.009467 -4.9220952e-15 0
-10.009467 -6.0033668e-17 0
-10.009467 4.3703366e-15 0
-10.009467 -3.9373067e-15 0
-10.009467 -6.2949195e-16 0
-10.009467 1.2571439e-16 0
-10.009467 5.0892407e-15 0
-10.009467 -5.0779319e-15 0
-10.009467 1.9523021e-14 0
-10.009467 5.5369967e-11 0
-10.009467 2.4185588e-08 0
-10.009468 -1.4349699e-07 0
-10.009391 -0.00020735314 0
-10.000043 -4.3335743e-05 0
-10.00002 2.3355983e-06 0
-10.000002 -0.0085387007 0
-10 0.0085371771 0
-10 -8.1909723e-06 0
-10.000002 6.1571436e-07 0
-10.000008 1.2083495e-06 0
-10.00001 -9.2122975e-09 0
-10.00001 -2.465635e-11 0
-10.00001 -8.3471267e-15 0
-10.00001 -2.4284371e-15 0
-10.00001 5.6943173e-15 0
-10.00001 -4.9016386e-15 0
-10.00001 -8.2861155e-17 0
-10.00001 4.7470376e-15 0
-10.00001 -4.8748359e-15 0
-10.00001 -2.0347378e-16 0
-10.00001 9.8708721e-17 0
-10.00001 5.0681787e-15 0
-10.00001 -5.0749524e-15 0
-10.00001 -1.5091535e-17 0
-10.00001 7.1513078e-15 0
-10.00001 2.5669115e-11 0
-10.00001 9.001573e-09 0
-10.000008 -1.2077122e-06 0
-10.000002 -6.1600151e-07 0
-10 8.1909725e-06 0
-10 -0.0085371771 0
-10 0.0085371771 0
-10 -8.1909683e-06 0
-10 -5.5504871e-07 0
-10 3.6538288e-10 0
-10 6.6924467e-12 0
-10 -3.4012022e-16 0
-10 -3.3429654e-17 0
-10 -2.4229505e-15 0
-10 5.6937488e-15 0
-10 -4.901336e-15 0
-10 -8.301242e-17 0
-10 4.7466349e-15 0
-10 -4.8748704e-15 0
-10 -2.0395734e-16 0
-10 9.8831288e-17 0
-10 5.0683163e-15 0
-10 -5.0752722e-15 0
-10 -1.7526147e-17 0
-10 2.1490272e-16 0
-10 2.8277813e-15 0
-10 -6.6918525e-12 0
-10 -3.6538406e-10 0
-10 5.5504871e-07 0
-10 8.1909683e-06 0
-10 -0.0085371771 0
-9.9999995 0.0085371861 0
-9.9999994 -8.1915276e-06 0
-9.9999994 -5.5507781e-07 0
-9.9999994 3.6577938e-10 0
-9.9999994 7.187452e-12 0
-9.9999994 -2.7986449e-15 0
-9.9999994 -3.9699285e-17 0
-9.9999994 -2.4218112e-15 0
-9.9999994 5.6938293e-15 0
-9.9999994 -4.9009229e-15 0
-9.9999994 -8.2114867e-17 0
-9.9999994 4.7478995e-15 0
-9.9999994 -4.8725402e-15 0
-9.9999994 -2.055749e-16 0
-9.9999994 9.785348e-17 0
-9.9999994 5.0673141e-15 0
-9.9999994 -5.0751857e-15 0
-9.9999994 -1.7525875e-17 0
-9.9999994 2.2130972e-16 0
-9.9999994 5.2302504e-15 0
-9.9999994 -7.1867646e-12 0
-9.9999994 -3.657824e-10 0
-9.9999994 5.550778e-07 0
-9.9999994 8.1915276e-06 0
-9.9999995 -0.0085371861 0
-9.9999971 0.0085389652 0
-9.999992 -7.9900213e-06 0
-9.9999918 -5.5607183e-07 0
-9.9999918 3.6344308e-10 0
-9.9999918 7.2011444e-12 0
-9.9999918 -2.7942914e-15 0
-9.9999918 -3.9984372e-17 0
-9.9999918 -2.423691e-15 0
-9.9999918 5.6948628e-15 0
-9.9999918 -4.9022294e-15 0
-9.9999918 -8.3187692e-17 0
-9.9999918 4.7471023e-15 0
-9.9999918 -4.8763014e-15 0
-9.9999918 -2.0339851e-16 0
-9.9999918 9.9026719e-17 0
-9.9999918 5.0693793e-15 0
-9.9999918 -5.0762724e-15 0
-9.9999918 -1.7526489e-17 0
-9.9999918 2.216359e-16 0
-9.9999918 5.2105604e-15 0
-9.9999918 -7.2003706e-12 0
-9.9999918 -3.6344574e-10 0
-9.9999918 5.5607183e-07 0
-9.999992 7.9900213e-06 0
-9.9999971 -0.0085389652 0
-10.008067 0.0080669032 0
-10.008539 -2.9493444e-06 0
-10.008537 -5.4509947e-07 0
-10.008537 2.422038e-10 0
-10.008537 7.128775e-12 0
-10.008537 -1.8482232e-15 0
-10.008537 -3.9941539e-17 0
-10.008537 -2.3662443e-15 0
-10.008537 5.5499737e-15 0
-10.008537 -4.7791101e-15 0
-10.008537 -8.4710427e-17 0
-10.008537 4.6217835e-15 0
-10.008537 -4.7607213e-15 0
-10.008537 -1.9344074e-16 0
-10.008537 1.010932e-16 0
-10.008537 4.9442031e-15 0
-10.008537 -4.9483261e-15 0
-10.008537 -1.7526647e-17 0
-10.008537 2.1743362e-16 0
-10.008537 4.2407509e-15 0
-10.008537 -7.1270202e-12 0
-10.008537 -2.4220954e-10 0
-10.008537 5.4509947e-07 0
-10.008539 2.9493444e-06 0
-10.008067 -0.0080669032 0
-3.5009436 7.5659044 0
4.3454013 -7.5174969 0
-7.4564486 -1.9604865 0
-1.0509568 11.912399 0
-6.358224 -10.539729 0
10.73543 -5.0798565 0
-9.9767592 -0.154578 0
-9.9868496 -0.48287641 0
-10.010419 0.00012773809 0
-10.010517 4.7576097e-05 0
-9.9998634 -0.46219222 0
-8.7100275 -4.9252222 0
-8.9672338 -4.4483334 0
-8.65087 5.0281279 0
-10.010509 -0.00081567279 0
-10.010517 3.488663e-06 0
-10.010415 2.6754569e-05 0
-3.0058392 -2.2436109 0
-8.0745737 -11.238737 0
2.3893917 -9.1079422 0
-7.2619599 -5.0375903 0
-7.8588256 6.6570772 0
-14.503875 -6.8823067 0
-0.36822457 8.9287284 0
-3.5794242 10.016048 0
2.6331935 -13.726701 0
-6.0808178 4.5786905 0
-5.4285363 -9.7963224 0
0.83753473 -8.0596169 0
-5.1653552 -6.4781345 0
-0.33745287 3.0344693 0
-7.6872064 3.0894913 0
4.0568877 7.9864897 0
10.000092 0.035387683 0
10.012815 1.0414654e-07 0
10.002875 0.44857202 0
9.0934292 4.2810947 0
9.3418265 3.6658354 0
9.0629648 -4.3246404 0
10.012848 0.00049957753 0
10.012809 -4.1881939e-05 0
9.9978725 -0.038749003 0
3.8158572 -8.0341425 0
9.8379217 2.1039685 0
3.1317078 -0.15592839 0
10.312307 5.3514235 0
7.787525 -6.4279731 0
-5.4416068 9.7794461 0
-6.080628 -4.578878 0
2.6331936 13.726701 0
-0.068179512 -9.4806735 0
-3.7105153 9.7189179 0
0.10299963 5.3613381 0
9.363913 8.5292537 0
-8.5231848 4.9677026 0
6.1457739 2.4061286 0
1.7945786 6.0919936 0
-4.3653946 -9.9344737 0
-10.018081 -0.045000226 0
-10.008507 -0.00013720652 0
-9.998485 -0.43738571 0
-9.0910109 -4.0788675 0
-9.3537888 -3.4262374 0
-9.053431 4.1628847 0
-10.008439 -0.00060279669 0
-10.008543 0.0002574714 0
-10.026707 0.043494001 0
-4.1104637 10.111178 0
1.3237585 -7.3753995 0
-4.7100991 -11.381048 0
-10.004247 0.26582516 0
-5.5446766 4.4076642 0
0.33049354 5.4907047 0
-8.1224551 -6.3278101 0
-0.075536831 9.4758255 0
0.49773043 -3.682452 0