# vtk DataFile Version 4.0
hesp visualization file
ASCII
DATASET UNSTRUCTURED_GRID
POINTS 32 double
2.9671306 0.9003718 4
2.3028944 2.2469044 4
2.3028944 3.3654059 4
2.9671306 4.7119384 4
3.817258 -0.39109616 4
3.7468362 1.7933507 4
3.7468362 3.8189596 4
3.817258 6.0034064 4
7.0874792 -1.772479 4
5.2269858 0.59170163 4
5.2269858 5.0206086 4
7.0874792 7.3847892 4
9.235603 -2.3827544 4
9.6150173 1.5682418 4
9.6150173 4.0440684 4
9.235603 7.9950646 4
12.376707 -2.3827544 4
11.997293 1.5682418 4
11.997293 4.0440684 4
12.376707 7.9950646 4
14.524831 -1.772479 4
16.385324 0.59170163 4
16.385324 5.0206086 4
14.524831 7.3847892 4
17.795052 -0.39109616 4
17.865474 1.7933507 4
17.865474 3.8189596 4
17.795052 6.0034064 4
18.64518 0.9003718 4
19.309416 2.2469044 4
19.309416 3.3654059 4
18.64518 4.7119384 4
CELLS 0 0
CELL_TYPES 0
POINT_DATA 32
SCALARS m double
LOOKUP_TABLE default
1
1
1
1
1
1
1
1
1
1
1
1
1
1
1
1
1
1
1
1
1
1
1
1
1
1
1
1
1
1
1
1
VECTORS v double
-10.830078 -1.6017306 0
-12.14386 -0.44745303 0
-12.14386 0.44745303 0
-10.830078 1.6017306 0
-12.456514 -4.6897016 0
-9.3609076 0.028890226 0
-9.3609076 -0.028890226 0
-12.456514 4.6897016 0
-6.2493628 -8.7267581 0
-8.2519562 -3.1856599 0
-8.2519562 3.1856599 0
-6.2493628 8.7267581 0
-3.0635918 -7.7778035 0
-1.4110804 -0.9231212 0
-1.4110804 0.9231212 0
-3.0635918 7.7778035 0
3.0635918 -7.7778035 0
1.4110804 -0.9231212 0
1.4110804 0.9231212 0
3.0635918 7.7778035 0
6.2493628 -8.7267581 0
8.2519562 -3.1856599 0
8.2519562 3.1856599 0
6.2493628 8.7267581 0
12.456514 -4.6897016 0
9.3609076 0.028890226 0
9.3609076 -0.028890226 0
12.456514 4.6897016 0
10.830078 -1.6017306 0
12.14386 -0.44745303 0
12.14386 0.44745303 0
10.830078 1.6017306 0
