# vtk DataFile Version 4.0
hesp visualization file
ASCII
DATASET UNSTRUCTURED_GRID
POINTS 1250 double
34.23186 4.2520488 4
30.450249 1.605772 4
33.713478 5.0370973 4
31.41412 3.5192353 4
29.970184 5.5101157 4
30.836964 6.774018 4
31.786059 7.8647978 4
31.015038 9.0193151 4
30.113856 10.093668 4
30.113034 11.224592 4
30.145846 12.552732 4
30.893576 13.941019 4
31.742796 15.420969 4
30.884769 15.23392 4
30.113036 16.837231 4
30.113033 17.9594 4
30.113599 19.089639 4
30.288881 19.990409 4
31.369227 19.838162 4
30.223591 20.412206 4
32.222093 23.030013 4
32.49532 25.177047 4
34.638906 24.348608 4
30.492447 27.400609 4
33.614971 26.186131 4
30.237591 -7.2714415 4
34.354387 1.7405514 4
30.802948 -0.27736464 4
32.518445 4.5426572 4
33.879076 5.7866239 4
30.949029 7.0516479 4
31.238611 7.217306 4
30.889812 9.6947539 4
31.219596 10.11399 4
31.21288 11.224651 4
31.179411 12.155829 4
30.380863 13.092283 4
29.699988 14.083123 4
30.384277 16.099593 4
31.212716 16.836568 4
31.212759 17.959388 4
31.219339 19.071889 4
30.930529 19.309098 4
30.544634 21.607327 4
31.11608 22.30199 4
30.703844 22.860887 4
31.047817 24.184541 4
30.807583 29.458698 4
34.355612 27.441332 4
30.237591 36.455455 4
31.819796 0.092602612 4
32.58632 4.2739842 4
30.767869 6.1453385 4
32.228685 5.5660179 4
31.310675 4.7637639 4
30.543818 8.7076686 4
32.005291 10.989175 4
32.473717 8.802929 4
32.34436 10.099561 4
31.439152 11.22462 4
31.442537 12.460188 4
32.27189 13.817584 4
33.102675 15.261723 4
32.267248 15.358327 4
31.438845 16.837136 4
31.438918 17.959196 4
32.350081 19.083099 4
31.78981 21.220101 4
32.078883 18.445752 4
31.108555 20.077853 4
31.527775 23.659585 4
33.952404 24.196444 4
31.583491 24.110554 4
32.832992 25.305783 4
31.820523 29.090648 4
31.610664 -1.8362842 4
30.650451 -3.4104375 4
31.786591 2.5424979 4
33.290232 3.9126257 4
29.481265 6.2115585 4
31.215159 8.2418046 4
33.005723 8.5330856 4
31.741829 9.4172217 4
32.989317 11.487677 4
32.545256 11.222977 4
32.534102 12.248817 4
31.649767 13.283698 4
30.744892 14.244119 4
31.65072 15.903727 4
32.538641 16.836728 4
32.54539 17.960051 4
33.732733 18.69205 4
31.742027 19.777271 4
32.996346 20.631409 4
30.482236 22.791201 4
32.189121 24.70668 4
33.282503 25.410158 4
31.7806 26.630609 4
30.650454 32.594451 4
31.610665 31.020298 4
33.297022 5.85777 4
31.201519 3.9726713 4
30.597967 1.252888 4
35.52042 4.2604452 4
33.067959 7.8090715 4
31.259909 6.2055491 4
32.215604 8.2013215 4
32.745039 9.0362481 4
32.709996 9.2628148 4
33.029853 12.11578 4
32.759528 12.385073 4
33.117037 14.009662 4
32.718872 15.478732 4
32.80249 16.209164 4
32.764923 16.837013 4
33.223365 17.493746 4
32.140814 19.527178 4
32.740848 20.393321 4
32.135302 21.961845 4
31.673694 21.978251 4
31.666547 21.640448 4
34.147045 23.154569 4
30.59766 27.926029 4
31.193704 25.211543 4
34.506542 24.818416 4
30.805188 -1.5481453 4
32.49193 -2.2820911 4
36.064294 5.128039 4
31.652556 7.0494581 4
34.193682 6.6122592 4
31.91522 7.116875 4
33.06769 8.273775 4
33.044772 8.9746169 4
32.96206 10.102116 4
34.067079 10.895727 4
33.865017 12.315305 4
33.506132 13.05352 4
33.769945 13.329033 4
33.911052 15.679682 4
33.865228 16.836765 4
33.693951 17.036113 4
32.962163 19.081702 4
32.961005 20.207438 4
33.047353 20.876755 4
31.895321 22.229304 4
34.024854 21.739398 4
31.41173 22.480497 4
35.602968 23.430915 4
32.492131 31.46616 4
30.805185 30.732159 4
31.721355 2.2338101 4
36.381614 3.1248984 4
30.970646 2.1077867 4
33.425803 5.2146016 4
31.412168 5.9400276 4
34.476563 7.1490625 4
34.763471 7.3682398 4
34.084884 8.9924605 4
34.084722 10.102116 4
34.084055 11.224416 4
34.089993 12.35552 4
34.112283 13.657013 4
33.283692 15.062151 4
34.114628 15.521524 4
34.091262 16.836981 4
34.08468 17.959393 4
34.084702 19.08188 4
34.084783 20.199402 4
34.498113 21.524728 4
33.106846 22.279964 4
31.857572 22.494863 4
33.676204 24.271057 4
30.910362 27.01376 4
36.378957 26.058499 4
31.723915 26.949338 4
37.841988 -4.514751 4
34.001909 3.290803 4
35.845019 2.1654021 4
33.848242 6.1945088 4
35.198958 5.83732 4
34.432772 6.5411309 4
34.460585 8.1100633 4
35.197816 8.9703757 4
35.191811 10.102204 4
35.191618 11.22462 4
35.191621 12.341109 4
35.167825 13.321325 4
35.66296 13.70177 4
35.16741 15.866185 4
35.19162 16.836911 4
35.191616 17.959392 4
35.191798 19.081814 4
35.19793 20.207693 4
35.155191 20.861868 4
34.26126 22.399408 4
36.241272 23.583343 4
33.439862 22.661262 4
35.843263 27.017668 4
34.026817 25.929727 4
37.841988 33.698764 4
32.768169 2.8700583 4
33.086245 1.8293446 4
37.076455 2.3847312 4
36.204388 5.4382306 4
36.455678 6.2818682 4
36.317444 6.7829416 4
35.43154 7.9780335 4
35.792944 9.9925284 4
35.418552 10.101164 4
35.418073 11.22462 4
35.418028 12.348078 4
35.398719 13.401332 4
34.884526 15.243276 4
35.411839 15.681977 4
35.418074 16.836935 4
35.418073 17.959393 4
35.418501 19.082929 4
35.740523 19.213195 4
35.416339 21.289682 4
35.509528 22.199656 4
35.00358 22.58776 4
36.907227 23.869337 4
37.057907 26.818143 4
33.086338 27.354277 4
32.380968 25.84481 4
32.078204 0.99650606 4
34.594301 -1.7283342 4
35.526726 2.7666209 4
35.948154 4.4796606 4
36.059465 8.3779167 4
35.795291 7.6595523 4
36.505978 7.694882 4
35.881023 9.361714 4
36.518691 10.102084 4
36.518738 11.22462 4
36.518738 12.346474 4
36.518607 13.444968 4
35.653549 14.28927 4
36.518693 15.739664 4
36.518738 16.836928 4
36.518738 17.959393 4
36.518701 19.081919 4
35.947966 19.767205 4
36.521327 21.430006 4
36.41675 22.795792 4
36.051358 20.831556 4
36.01007 24.652064 4
35.529024 26.415076 4
34.594302 30.912345 4
32.070829 28.174358 4
31.59171 0.61402226 4
35.220159 1.7390351 4
36.92751 5.1747675 4
35.196735 3.4616027 4
37.753764 5.1941501 4
36.942113 7.1655413 4
36.756774 8.5263827 4
36.738377 8.9796415 4
36.745059 10.102159 4
36.745082 11.22462 4
36.745081 12.347136 4
36.744287 13.473111 4
37.190514 15.189897 4
36.744297 15.710751 4
36.745082 16.836931 4
36.745082 17.959393 4
36.745063 19.081855 4
36.738375 20.204408 4
36.761922 20.657528 4
36.978011 21.987843 4
37.26998 23.92227 4
35.268237 25.881447 4
36.217327 24.215336 4
35.219358 27.445976 4
31.596748 28.591893 4
33.448296 0.47518762 4
36.440656 0.75754248 4
37.099935 7.7380744 4
36.250234 3.6778472 4
36.015213 5.9350705 4
37.666396 6.3376525 4
37.82304 7.7828403 4
37.846044 8.9796527 4
37.846061 10.102159 4
37.846062 11.22462 4
37.846062 12.347056 4
37.846058 13.467386 4
37.360838 14.208438 4
37.846053 15.716669 4
37.846062 16.83693 4
37.846062 17.959393 4
37.846061 19.081854 4
37.846043 20.204334 4
37.823576 21.40118 4
37.628988 22.865364 4
37.206617 23.114009 4
36.243312 25.510052 4
37.091553 21.448572 4
36.442607 28.434001 4
33.448311 28.708844 4
34.39209 1.1301756 4
34.872098 1.6529805 4
38.451296 2.6874068 4
38.840625 5.5387237 4
37.16033 5.626137 4
38.081475 6.8885201 4
38.065613 7.857349 4
38.072184 8.9796948 4
38.072194 10.102158 4
38.072194 11.22462 4
38.072194 12.347083 4
38.072187 13.469719 4
38.068307 14.658331 4
38.072184 15.714287 4
38.072194 16.836931 4
38.072194 17.959393 4
38.072194 19.081855 4
38.072184 20.204319 4
38.065641 21.326657 4
38.082265 22.291911 4
37.423536 23.286899 4
38.869804 23.744297 4
38.442306 26.481589 4
34.871566 27.534538 4
34.392094 28.053829 4
35.341519 0.54413545 4
37.781016 1.4312009 4
36.731526 2.9240463 4
37.34586 4.424884 4
38.296479 5.867207 4
39.153294 6.6298438 4
39.173351 7.8572584 4
39.173366 8.9796981 4
39.173367 10.102158 4
39.173367 11.22462 4
39.173367 12.347082 4
39.173367 13.469464 4
39.172619 14.543813 4
39.173366 15.714551 4
39.173367 16.836931 4
39.173367 17.959393 4
39.173367 19.081855 4
39.173366 20.204315 4
39.173351 21.326755 4
39.152454 22.556519 4
38.24836 23.513388 4
37.34559 24.755873 4
36.733458 26.251182 4
37.78221 27.751243 4
35.341793 28.636182 4
37.482028 0.9645946 4
36.805841 1.8121618 4
37.601134 2.8429083 4
38.498838 4.7801887 4
39.680948 5.0618558 4
39.392069 6.7346318 4
39.399263 7.8572478 4
39.399272 8.9796963 4
39.399273 10.102158 4
39.399273 11.22462 4
39.399273 12.347083 4
39.399273 13.469547 4
39.396639 14.5952 4
39.399273 15.714466 4
39.399273 16.836931 4
39.399273 17.959393 4
39.399273 19.081855 4
39.399272 20.204317 4
39.399263 21.326765 4
39.392007 22.449409 4
39.395401 23.499537 4
38.497246 24.413668 4
37.601503 26.342947 4
36.810897 27.385104 4
37.475717 28.212227 4
37.837611 1.0195145 4
37.755393 2.2609906 4
39.344763 5.0127326 4
39.973687 3.6108603 4
40.187345 5.972041 4
40.500459 6.7349585 4
40.500468 7.857225 4
40.500469 8.9796964 4
40.500469 10.102158 4
40.500469 11.22462 4
40.500469 12.347083 4
40.500469 13.469545 4
40.500469 14.590412 4
40.500469 15.714469 4
40.500469 16.836931 4
40.500469 17.959393 4
40.500469 19.081855 4
40.500469 20.204317 4
40.500468 21.326789 4
40.500462 22.449047 4
40.497903 23.621501 4
39.950612 25.553932 4
39.346508 24.169578 4
37.755486 26.92373 4
37.843299 28.170032 4
38.881851 1.1270747 4
38.881836 2.2449606 4
41.701855 2.6406744 4
41.222547 5.1439028 4
40.71893 5.5896623 4
40.726198 6.734777 4
40.726204 7.8572346 4
40.726205 8.9796964 4
40.726205 10.102158 4
40.726205 11.22462 4
40.726205 12.347083 4
40.726205 13.469545 4
40.726201 14.592054 4
40.726205 15.714469 4
40.726205 16.836931 4
40.726205 17.959393 4
40.726205 19.081855 4
40.726205 20.204317 4
40.726204 21.326779 4
40.7262 22.449236 4
40.722909 23.571306 4
41.247726 24.054702 4
41.69123 26.539145 4
38.881841 26.939055 4
38.881851 28.056939 4
40.004318 1.1270758 4
40.004924 2.2467444 4
39.997729 3.3518477 4
40.922243 4.4475171 4
41.827164 5.62788 4
41.827254 6.7347649 4
41.827254 7.8572344 4
41.827254 8.9796964 4
41.827254 10.102158 4
41.827254 11.22462 4
41.827254 12.347083 4
41.827254 13.469545 4
41.827254 14.592007 4
41.827254 15.714469 4
41.827254 16.836931 4
41.827254 17.959393 4
41.827254 19.081855 4
41.827254 20.204317 4
41.827254 21.326779 4
41.827254 22.449248 4
41.827218 23.571818 4
40.922029 24.735087 4
39.997482 25.829594 4
40.004932 26.937248 4
40.004318 28.056937 4
41.126783 1.1271131 4
41.267667 1.7484729 4
41.126697 3.3672541 4
42.052629 4.594252 4
[...]
POINT_DATA 1250
SCALARS m double
LOOKUP_TABLE default
1
1
1
1
1
1
1
1
1
1
1
1
1
1
1
1
1
1
1
1
1
1
1
1
1
1
1
1
1
1
1
1
1
1
1
1
1
1
1
1
1
1
1
1
1
1
1
1
1
1
1
1
1
1
1
1
1
1
1
1
1
1
1
1
1
1
1
1
1
1
1
1
1
1
1
1
1
1
1
1
1
1
1
1
1
1
1
1
1
1
1
1
1
1
1
1
1
1
1
1
1
1
1
1
1
1
1
1
1
1
1
1
1
1
1
1
1
1
1
1
1
1
1
1
1
1
1
1
1
1
1
1
1
1
1
1
1
1
1
1
1
1
1
1
1
1
1
1
1
1
1
1
1
1
1
1
1
1
1
1
1
1
1
1
1
1
1
1
1
1
1
1
1
1
1
1
1
1
1
1
1
1
1
1
1
1
1
1
1
1
1
1
1
1
1
1
1
1
1
1
1
1
1
1
1
1
1
1
1
1
1
1
1
1
1
1
1
1
1
1
1
1
1
1
1
1
1
1
1
1
1
1
1
1
1
1
1
1
1
1
1
1
1
1
1
1
1
1
1
1
1
1
1
1
1
1
1
1
1
1
1
1
1
1
1
1
1
1
1
1
1
1
1
1
1
1
1
1
1
1
1
1
1
1
1
1
1
1
1
1
1
1
1
1
1
1
1
1
1
1
1
1
1
1
1
1
1
1
1
1
1
1
1
1
1
1
1
1
1
1
1
1
1
1
1
1
1
1
1
1
1
1
1
1
1
1
1
1
1
1
1
1
1
1
1
1
1
1
1
1
1
1
1
1
1
1
1
1
1
1
1
1
1
1
1
1
1
1
1
1
1
1
1
1
1
1
1
1
1
1
1
1
1
1
1
1
1
1
1
1
1
1
1
1
1
1
1
1
1
1
1
1
1
1
1
1
1
1
1
1
1
1
1
1
1
1
1
1
1
1
1
1
1
1
1
1
1
1
1
1
1
1
1
1
1
1
1
1
1
1
1
1
1
1
1
1
1
1
1
1
1
1
1
1
1
1
1
1
1
1
1
1
1
1
1
1
1
1
1
1
1
1
1
1
1
1
1
1
1
1
1
1
1
1
1
1
1
1
1
1
1
1
1
1
1
1
1
1
1
1
1
1
1
1
1
1
1
1
1
1
1
1
1
1
1
1
1
1
1
1
1
1
1
1
1
1
1
1
1
1
1
1
1
1
1
1
1
1
1
1
1
1
1
1
1
1
1
1
1
1
1
1
1
1
1
1
1
1
1
1
1
1
1
1
1
1
1
1
1
1
1
1
1
1
1
1
1
1
1
1
1
1
1
1
1
1
1
1
1
1
1
1
1
1
1
1
1
1
1
1
1
1
1
1
1
1
1
1
1
1
1
1
1
1
1
1
1
1
1
1
1
1
1
1
1
1
1
1
1
1
1
1
1
1
1
1
1
1
1
1
1
1
1
1
1
1
1
1
1
1
1
1
1
1
1
1
1
1
1
1
1
1
1
1
1
1
1
1
1
1
1
1
1
1
1
1
1
1
1
1
1
1
1
1
1
1
1
1
1
1
1
1
1
1
1
1
1
1
1
1
1
1
1
1
1
1
1
1
1
1
1
1
1
1
1
1
1
1
1
1
1
1
1
1
1
1
1
1
1
1
1
1
1
1
1
1
1
1
1
1
1
1
1
1
1
1
1
1
1
1
1
1
1
1
1
1
1
1
1
1
1
1
1
1
1
1
1
1
1
1
1
1
1
1
1
1
1
1
1
1
1
1
1
1
1
1
1
1
1
1
1
1
1
1
1
1
1
1
1
1
1
1
1
1
1
1
1
1
1
1
1
1
1
1
1
1
1
1
1
1
1
1
1
1
1
1
1
1
1
1
1
1
1
1
1
1
1
1
1
1
1
1
1
1
1
1
1
1
1
1
1
1
1
1
1
1
1
1
1
1
1
1
1
1
1
1
1
1
1
1
1
1
1
1
1
1
1
1
1
1
1
1
1
1
1
1
1
1
1
1
1
1
1
1
1
1
1
1
1
1
1
1
1
1
1
1
1
1
1
1
1
1
1
1
1
1
1
1
1
1
1
1
1
1
1
1
1
1
1
1
1
1
1
1
1
1
1
1
1
1
1
1
1
1
1
1
1
1
1
1
1
1
1
1
1
1
1
1
1
1
1
1
1
1
1
1
1
1
1
1
1
1
1
1
1
1
1
1
1
1
1
1
1
1
1
1
1
1
1
1
1
1
1
1
1
1
1
1
1
1
1
1
1
1
1
1
1
1
1
1
1
1
1
1
1
1
1
1
1
1
1
1
1
1
1
1
1
1
1
1
1
1
1
1
1
1
1
1
1
1
1
1
1
1
1
1
1
1
1
1
1
1
1
1
1
1
1
1
1
1
1
1
1
1
1
1
1
1
1
1
1
1
1
1
1
1
1
1
1
1
1
1
1
1
1
1
1
1
1
1
1
1
1
1
1
1
1
1
1
1
1
1
1
1
1
1
1
1
1
1
1
1
1
1
1
1
1
1
1
1
1
1
1
1
1
1
1
1
1
1
1
1
1
1
1
1
1
1
1
1
1
1
1
1
1
1
1
1
1
1
1
1
1
1
1
1
1
1
1
1
1
1
1
1
1
1
1
1
1
1
1
1
1
1
1
1
1
1
1
1
1
1
1
1
1
1
1
1
1
1
1
1
1
1
1
1
1
1
1
1
1
1
1
1
1
1
1
1
1
1
1
1
1
1
1
1
1
1
1
1
1
1
1
1
1
1
1
1
1
1
1
1
1
1
1
1
1
1
1
1
1
1
1
1
1
1
1
1
1
1
VECTORS v double
3.5656817 7.5104814 0
5.8623859 -11.082752 0
3.7476838 3.8724663 0
-7.6401262 -7.0438258 0
-3.3919212 -4.5421796 0
0.82624517 0.61011841 0
-5.5091885 -4.8999331 0
9.9928001 0.30309532 0
-3.1274054 -0.22860052 0
-2.2035688 -0.0020618236 0
-9.1917633 4.0486337 0
8.7305785 4.9933536 0
9.0395467 4.4512892 0
8.4752795 -5.0325464 0
-2.2058907 0.027528442 0
-2.2032952 9.6909157e-05 0
-3.126061 0.17342613 0
-1.9575994 -3.4574211 0
11.862906 -4.641976 0
2.2586677 -9.1805484 0
7.2389063 -5.226632 0
7.5243256 8.4351752 0
14.956781 -5.4509041 0
6.3326848 7.6934856 0
-4.4417018 8.8343294 0
-2.6756884 -13.726701 0
-9.4868613 3.3168468 0
5.4279367 -9.7857146 0
10.002673 1.8763324 0
11.948295 -1.5359107 0
-7.3401488 2.5801429 0
-3.8996882 -5.2766766 0
-3.8680925 7.9741222 0
9.9910696 0.19756902 0
2.3862745 0.0014678632 0
9.214834 -3.8661764 0
-9.264649 -3.8870721 0
4.8138069 9.0762245 0
-9.2254791 3.9628663 0
2.2653459 -0.025079286 0
2.2928936 0.005880821 0
9.9442704 -0.091889156 0
-2.7032091 -13.265874 0
-9.7806259 2.1620322 0
-2.6524767 0.53387999 0
-4.9690223 6.9020602 0
-8.1563024 -6.4699329 0
5.4417412 9.7816553 0
-9.444496 -3.4281002 0
-2.6756885 13.726701 0
0.19127332 -9.2209565 0
6.8683291 7.3874551 0
-8.6522105 5.9875859 0
2.6437252 0.55968349 0
8.5306201 -5.457177 0
-11.392122 2.7201878 0
-1.918569 9.563743 0
13.71122 1.6302364 0
10.05081 0.0030279156 0
-2.3708911 -0.0082811777 0
-9.8199113 2.16762 0
9.2888135 3.5525645 0
-1.689457 12.270061 0
9.2170866 -3.637405 0
-2.2696725 0.021302131 0
-2.2938271 -0.0092061174 0
10.1928 0.054553419 0
4.093651 10.131098 0
-1.4191533 -7.2032935 0
2.9255831 -13.533771 0
10.09188 0.39882646 0
6.6058762 3.9342196 0
-0.48439192 5.397674 0
13.167709 2.9326171 0
0.19942411 9.1965634 0
-0.49895467 -3.6816003 0
6.8351366 -10.619265 0
-4.8096627 -5.4187476 0
5.9812681 -1.0700373 0
-13.268684 -2.905192 0
0.94060788 9.7435982 0
3.4088175 9.2334707 0
-8.5324277 5.1078124 0
-0.31434645 8.21026 0
9.9926451 -0.046220919 0
9.1498726 -2.3987544 0
-9.8796684 -1.7882214 0
-9.8745055 -1.9058794 0
-9.8754601 1.7857138 0
2.415094 -0.013872346 0
9.9967804 0.017557055 0
8.2842096 11.72944 0
-8.4683709 -5.182044 0
9.9667975 -3.4682688 0
1.8557353 12.211716 0
-2.1192091 -2.9432977 0
5.9824001 2.1505417 0
-4.8346339 5.3878216 0
6.835143 10.61927 0
-0.49895561 3.6816014 0
-11.587134 10.768503 0
8.2324096 4.3046844 0
8.7252647 -4.7844315 0
9.192525 -5.1060157 0
-6.293194 12.542556 0
-13.090212 3.4626293 0
8.9904738 11.223881 0
-6.8561858 -5.2114418 0
-3.8772172 7.3790164 0
-4.5641435 17.748431 0
-9.3188607 1.0422806 0
-2.4078298 10.339385 0
-4.6651859 0.96112715 0
-9.1093658 9.5731443 0
-2.4192829 0.0082552257 0
0.83826387 -9.1769412 0
-6.9176058 4.5777909 0
-1.5315536 -4.0872111 0
-6.3335794 7.4800836 0
-1.4651102 -7.5084368 0
-4.8460046 -11.415608 0
0.61843912 -11.853004 0
8.7532389 4.8429732 0
8.1592416 -4.316421 0
5.8077373 -6.7731469 0
-1.1208257 -6.3282369 0
-1.9953846 -10.926907 0
2.2438325 -8.6423646 0
-4.7527172 10.73542 0
-2.3473437 9.3538299 0
-8.9194236 -5.8524973 0
-3.7810828 -7.9072176 0
1.6804457 -0.33968391 0
-10.011937 -0.0025230279 0
13.485549 -7.0840895 0
3.7811987 -1.6681768 0
2.5674296 -8.7494174 0
2.4941084 -9.3681508 0
9.6918432 -0.84885813 0
2.9997761 -0.64823784 0
4.8885782 -18.607044 0
-10.008453 -0.0041379609 0
-9.900769 -0.032001401 0
-8.1374528 -1.4909432 0
-10.804656 -3.4334615 0
-8.1844285 3.8374835 0
-7.8674209 -2.3896448 0
-10.306126 -7.6876292 0
-1.994797 10.927074 0
-1.1208314 6.3282416 0
-2.3850632 9.5308982 0
1.8030397 3.5389088 0
-6.4024862 -6.8697315 0
6.9700492 5.6640752 0
-7.3722121 -9.2381755 0
-6.7173213 -3.139327 0
11.532299 0.74129875 0
-10.002945 0.23969025 0
-10.006059 -7.8358291e-05 0
-10.032422 0.04954676 0
-3.8149549 1.1599603 0
-9.4685894 3.5570798 0
1.622038 -5.5122923 0
-8.4997344 -4.3225564 0
-2.489407 0.0070945527 0
-10.008241 0.00028328303 0
-10.01026 -0.0036784692 0
-10.004956 -0.09133368 0
1.2862808 1.0175174 0
-11.434086 -5.3705673 0
-11.942645 -5.6004141 0
5.4010364 -4.2205898 0
-6.8577646 6.4104132 0
1.780122 -3.5385998 0
-2.3491088 -9.5534633 0
4.8370531 -9.9977527 0
-5.9075458 -7.3049189 0
1.7263946 -3.45475 0
-1.262691 -1.8121447 0
-6.2500344 6.0291737 0
5.3024081 -6.6738803 0
-5.4230355 6.5307599 0
9.9963406 -0.20177667 0
2.741707 0.028498153 0
2.5747896 -3.0293914e-05 0
2.6148217 -0.33210462 0
7.6270334 -3.7457612 0
6.1983734 -1.9827095 0
9.3888996 3.2268368 0
2.573917 -0.0012732015 0
2.5754335 -3.9774708e-05 0
2.7235079 -0.029787652 0
9.9981291 0.076740953 0
9.9986693 -10.583412 0
-10.169555 -0.42877682 0
7.3604623 -0.65117764 0
-3.554915 -1.4572189 0
1.7215931 3.4508519 0
-5.3832263 8.0244436 0
4.8370532 9.9977527 0
-1.2921475 -6.4914135 0
-9.8576229 -1.5968942 0
6.0355039 -7.1573929 0
0.33636352 6.9942736 0
2.6575112 -3.1143631 0
10.084656 0.45961052 0
-9.5764216 2.6041006 0
0.38419607 18.37818 0
-2.6559922 -0.11216198 0
-2.581046 -3.9063953e-05 0
-2.6219212 0.22350088 0
-9.4604548 -6.4317621 0
-5.4887594 7.1740267 0
-10.007504 -0.62271222 0
-2.5801485 0.00071730137 0
-2.5816483 6.7641668e-05 0
-2.648606 0.12302668 0
-0.55445279 -18.007396 0
-9.9159592 -1.0847354 0
-7.9858155 -5.4423767 0
-8.06047 -5.7903022 0
4.6591317 0.84999296 0
5.9799414 7.2289718 0
-9.8571789 1.5955125 0
-4.2067761 2.9467156 0
1.506662 -1.2064249 0
-3.9332539 -8.2576448 0
2.6937993 -3.390506 0
-0.30434919 -0.41502112 0
2.5749007 -9.0706419 0
-7.4700791 13.766992 0
9.5898374 -3.0494168 0
-4.2744534 8.4025775 0
2.4849086 -0.005746397 0
2.4724527 -2.8004007e-05 0
2.4728667 -0.032962265 0
3.1725677 -1.2922344 0
-9.6087 -3.072917 0
3.1841216 1.3258026 0
2.4724549 -0.00019374937 0
2.4724537 2.649442e-05 0
2.4821545 0.004911538 0
-3.0014477 -9.3818096 0
9.9167805 1.7290127 0
7.9119872 6.5639853 0
2.1980114 9.6033784 0
0.14482933 -0.13767862 0
2.7026304 3.3689568 0
-3.9332515 8.257639 0
1.3420926 0.72916273 0
-11.648834 -4.346882 0
-10.041377 -1.067978 0
2.3329792 2.1630801 0
-7.3192419 -7.2844071 0
11.107689 -3.0749696 0
-5.8355576 8.3937614 0
-9.6035667 15.962724 0
-10.003497 -0.01811286 0
-2.4932482 0.0021857379 0
-2.4757307 -7.9768102e-07 0
-2.476161 0.02082471 0
-3.195187 0.83266395 0
-0.24237685 11.071267 0
-3.2020006 -0.85801201 0
-2.4757197 0.00010963782 0
-2.47573 5.1887352e-07 0
-2.4892098 -0.0018445884 0
-10.003449 0.018640223 0
-9.4753638 -16.010892 0
-5.0823402 -8.9555034 0
-0.28950678 7.2843273 0
-6.7382619 8.5083707 0
-7.5949755 0.34840162 0
-10.04682 1.0755349 0
-11.520846 4.8876574 0
-7.9805969 -7.190767 0
-9.7685985 -5.4758741 0
-0.93929553 1.7949838 0
-10.890179 -0.0070890587 0
-9.759406 7.336306 0
5.9636414 -7.9982573 0
8.4416712 -1.9962053 0
2.2711272 -0.0023495055 0
2.2644254 1.9684992e-05 0
2.2642941 -8.9221417e-07 0
2.2642957 -0.0013952935 0
2.2703172 -0.11814629 0
-0.17565315 -8.7253882 0
2.2715156 0.12019407 0
2.2642852 -3.3093459e-05 0
2.2642932 6.0994449e-07 0
2.2644303 -1.9523116e-05 0
2.2714412 0.0009172966 0
8.4158459 2.0059075 0
5.1851489 8.4580042 0
0.7182039 -13.882885 0
-10.956811 0.051581781 0
-1.0719813 -1.7188856 0
-9.7389878 5.5721818 0
-7.9804403 7.1909735 0
-10.002799 0.080467316 0
6.6808833 -2.2206876 0
3.586011 1.3751288 0
4.0384172 5.6864152 0
-9.6258513 2.5749082 0
-9.6644064 2.8659324 0
-8.8723576 0.32919827 0
-2.271822 0.0012740098 0
-2.2646136 -1.1927854e-05 0
-2.2644716 3.7100952e-07 0
-2.2644744 0.00084079025 0
-2.2710203 0.074873766 0
-9.9387957 1.2383841 0
-2.2728168 -0.07657555 0
-2.2644652 1.6108969e-05 0
-2.2644705 -2.3679808e-07 0
-2.2646194 1.2094607e-05 0
-2.2721574 -0.00041883787 0
-8.8377896 -0.33974067 0
-9.6474863 -2.9336222 0
8.4479752 -5.1535484 0
4.6798845 -3.0751635 0
3.5217587 -1.5104132 0
6.6423567 2.3396475 0
-10.002601 -0.080646078 0
-11.480897 -4.9498261 0
0.81211465 7.9574576 0
-6.4238914 -6.6426204 0
-10.042119 -0.29345191 0
-9.6883982 2.4767402 0
8.8396746 -2.641091 0
2.0216572 0.00097425754 0
2.0152579 9.397944e-05 0
2.0150228 1.7952998e-09 0
2.0150229 -2.2450997e-09 0
2.0150227 -2.3813514e-06 0
2.0149536 -0.0043626137 0
4.3179238 -2.2126284 0
2.0151026 0.0045358047 0
2.0150228 -2.7751637e-06 0
2.0150229 3.0272476e-09 0
2.0150228 -9.1721794e-10 0
2.0152624 -9.0071825e-05 0
2.0217392 -0.00095039127 0
8.896626 2.6697367 0
-10.567595 -2.1324639 0
-10.043762 0.27647361 0
-6.3825392 6.5634165 0
0.71226586 -8.0298581 0
-11.478435 4.9182158 0
-1.425542 -6.6593743 0
-8.8932608 -3.7629862 0
-9.7411089 -2.4204996 0
-9.8104887 2.0077494 0
-3.9327354 -10.300183 0
-9.2645323 0.30518978 0
-2.0196967 -5.0856578e-05 0
-2.0130665 -5.6638414e-05 0
-2.0128213 -1.6145499e-09 0
-2.0128213 1.8745604e-09 0
-2.0128212 1.7558741e-06 0
-2.0127488 0.0026913004 0
-4.3822716 1.2243258 0
-2.0129012 -0.0027201089 0
-2.0128213 1.9073846e-06 0
-2.0128213 -2.1309804e-09 0
-2.0128213 1.1681267e-09 0
-2.0130713 5.4292765e-05 0
-2.0197795 9.0011564e-06 0
-9.3381475 -0.28049213 0
-9.9334639 -1.3338863 0
-9.821374 -1.9432297 0
-9.7324481 2.4409404 0
-8.8517805 3.8649289 0
-1.6035916 6.4672745 0
-4.765024 -7.4617878 0
-10.036404 0.3080349 0
-6.311648 8.6826269 0
-6.1528902 -7.1336036 0
3.5438868 8.1583182 0
1.8077753 0.0094535218 0
1.8043683 -0.00051829592 0
1.8041458 5.9789433e-09 0
1.8041459 -1.4822022e-10 0
1.8041459 3.0709977e-13 0
1.804146 -5.4050628e-08 0
1.8041436 1.5915588e-06 0
1.8068359 -0.088349927 0
1.8041478 1.9361498e-06 0
1.8041461 -9.1209555e-08 0
1.8041459 1.9891935e-12 0
1.8041459 1.3433339e-10 0
1.8041458 -7.978095e-09 0
1.8043699 0.00054728637 0
1.8072911 -0.010484065 0
4.6295883 2.168288 0
-6.2818824 8.2639314 0
-6.3823282 -8.636233 0
-10.037788 -0.29536491 0
-4.5051459 7.6624088 0
-10.000205 0.0091295166 0
-10.003958 0.0025262464 0
3.3474084 3.7375611 0
5.7592807 7.1740356 0
-9.9916045 -0.42596864 0
-1.8047374 -0.0059089216 0
-1.8008807 0.00031683602 0
-1.8006539 4.1718872e-09 0
-1.8006539 1.3462599e-10 0
-1.8006539 2.6390136e-13 0
-1.800654 4.044403e-08 0
-1.8006524 6.1523299e-07 0
-1.8034173 0.054281582 0
-1.8006551 4.4029691e-07 0
-1.8006542 5.4409175e-08 0
-1.8006539 9.7901581e-13 0
-1.8006539 -1.2863404e-10 0
-1.8006539 -3.3005507e-09 0
-1.8008815 -0.00033721854 0
-1.8038402 0.0060657654 0
-4.7092421 -1.0711449 0
6.0274871 -6.9984774 0
3.1678858 -3.8498966 0
-10.003389 -0.0021090415 0
-10.000208 -0.0091279578 0
-9.9999665 0.0091274012 0
-9.9927378 0.017810992 0
-9.864034 -1.8408442 0
-10.018794 -0.3874446 0
1.9699561 0.84362875 0
1.7040871 -0.00042427928 0
1.7040477 8.5373527e-07 0
1.7040477 1.6808286e-10 0
1.7040477 2.0251897e-15 0
1.7040477 -1.0621694e-13 0
1.7040477 -2.1422481e-12 0
1.7040477 7.8549116e-08 0
1.7040477 -3.683008e-07 0
1.7040477 8.6728477e-08 0
1.7040477 -1.5467767e-12 0
1.7040477 2.283582e-13 0
1.7040477 1.330114e-14 0
1.7040477 -2.5097272e-10 0
1.7040475 -3.1539e-08 0
1.7041246 0.00041699253 0
1.7169908 0.015651551 0
-10.022967 0.36621983 0
-9.987121 0.49270791 0
-9.9926338 -0.018022399 0
-9.9999667 -0.0091270565 0
-9.9993482 0.012984756 0
-7.0809886 -10.431062 0
-10.000617 -0.0030146708 0
-9.8461095 1.9398072 0
-1.9758893 -0.50581443 0
-1.7003638 0.00024629866 0
-1.7003206 -5.358984e-07 0
-1.7003206 -1.5489607e-11 0
-1.7003206 -3.9864227e-14 0
-1.7003206 -8.2601178e-14 0
-1.7003206 -5.0578566e-13 0
-1.7003206 -3.9037517e-08 0
-1.7003206 1.9396799e-07 0
-1.7003206 -4.4000516e-08 0
-1.7003206 -4.3197121e-13 0
-1.7003206 1.5391943e-13 0
-1.7003206 3.274461e-16 0
-1.7003206 5.2203208e-11 0
-1.7003205 -1.1682326e-09 0
-1.7004033 -0.00025333916 0
-1.7158234 -0.018318956 0
-9.853576 -1.8928562 0
-10.000575 0.0030526814 0
-6.9165036 10.554165 0
-9.9992812 -0.013124925 0
-10.000084 0.0091498986 0
-10.002725 0.0012811056 0
-10.000301 -0.00010077956 0
6.441053 -2.5980388 0
2.1982906 -0.010016171 0
2.1980222 -4.4401465e-06 0
2.1980194 8.0330285e-09 0
2.1980194 -3.1857706e-14 0
2.1980194 6.841669e-15 0
2.1980194 -2.4545045e-14 0
2.1980194 -4.9013913e-14 0
2.1980194 5.4794814e-14 0
2.1980194 2.7172387e-13 0
2.1980194 3.0594911e-13 0
2.1980194 2.6673563e-14 0
2.1980194 4.3784966e-14 0
2.1980194 -5.4905757e-15 0
2.1980194 -9.6703982e-14 0
2.1980194 4.1594099e-09 0
2.1980226 3.3286106e-06 0
2.1982975 0.010413254 0
6.3003111 2.5797403 0
-10.000298 9.0068107e-05 0
-10.00253 -0.0011543611 0
-10.000087 -0.0091520275 0
-10.000003 0.0090816679 0
-10.000009 -1.4815784e-05 0
-10.000072 0.00015702129 0
-6.6020185 1.0191991 0
-2.1968931 0.0060829272 0
-2.1966194 3.0133972e-06 0
-2.196616 3.8356096e-09 0
-2.196616 2.6024038e-13 0
-2.196616 6.383404e-15 0
-2.196616 -2.9732286e-14 0
-2.196616 -5.0851335e-14 0
-2.196616 -5.4746379e-14 0
-2.196616 -1.3164482e-13 0
-2.196616 1.3632235e-14 0
-2.196616 4.6966721e-14 0
-2.196616 5.4373284e-14 0
-2.196616 -5.6717352e-15 0
-2.196616 -2.2775565e-13 0
-2.196616 -3.4266066e-09 0
-2.1966195 -2.4058911e-06 0
-2.1969007 -0.0063203431 0
-6.4534542 -1.0390968 0
-10.000071 -0.00015606863 0
-10.000009 1.4875093e-05 0
-10.000003 -0.0090816587 0
-10 0.0090800917 0
-10 -1.799205e-05 0
-10.000005 2.8104585e-06 0
-10.000027 2.4250948e-06 0
-10.000032 3.2851492e-07 0
-10.000033 6.9594674e-10 0
-10.000033 3.1574491e-13 0
-10.000033 -2.4080405e-15 0
-10.000033 6.0503803e-15 0
-10.000033 -5.208072e-15 0
-10.000033 -8.7994916e-17 0
-10.000033 5.0452752e-15 0
-10.000033 -5.1831706e-15 0
-10.000033 -2.1588887e-16 0
-10.000033 1.0485977e-16 0
-10.000033 5.3853833e-15 0
-10.000033 -5.3930332e-15 0
-10.000033 -1.3342516e-16 0
-10.000033 -2.5118107e-13 0
-10.000033 -7.2392003e-10 0
-10.000032 -3.193994e-07 0
-10.000027 -2.4434602e-06 0
-10.000005 -2.807443e-06 0
-10 1.799205e-05 0
-10 -0.0090800917 0
-9.9999994 0.0090801019 0
-9.9999994 -1.7992719e-05 0
-9.9999994 -6.4217894e-07 0
-9.9999994 -5.5906411e-10 0
-9.9999994 2.155453e-12 0
-9.9999994 -1.1211234e-13 0
-9.9999994 -2.8637408e-16 0
-9.9999994 -2.573259e-15 0
-9.9999994 6.0497146e-15 0
-9.9999994 -5.2071968e-15 0
-9.9999994 -8.7168551e-17 0
-9.9999994 5.0447482e-15 0
-9.9999994 -5.1769201e-15 0
-9.9999994 -2.1850538e-16 0
-9.9999994 1.0388637e-16 0
-9.9999994 5.3839585e-15 0
-9.9999994 -5.3923638e-15 0
-9.9999994 -1.8457481e-17 0
-9.9999994 4.8729226e-16 0
-9.9999994 1.110807e-13 0
-9.9999994 -1.9424399e-12 0
-9.9999994 5.2889877e-10 0
-9.9999994 6.4217894e-07 0
-9.9999994 1.7992719e-05 0
-9.9999994 -0.0090801019 0
-9.9999883 0.009082241 0
-9.9999822 -1.7753678e-05 0
-9.999982 -6.4351305e-07 0
-9.999982 7.2795882e-10 0
-9.999982 9.2480376e-12 0
-9.999982 -6.6875656e-15 0
-9.999982 -5.7319763e-17 0
-9.999982 -2.5750699e-15 0
-9.999982 6.0509604e-15 0
-9.999982 -5.208676e-15 0
-9.999982 -8.8240271e-17 0
-9.999982 5.0441135e-15 0
-9.999982 -5.1808783e-15 0
-9.999982 -2.1628526e-16 0
-9.999982 1.0505572e-16 0
-9.999982 5.3862031e-15 0
-9.999982 -5.3936276e-15 0
-9.999982 -1.8621616e-17 0
-9.999982 2.4955626e-16 0
-9.999982 9.0479062e-15 0
-9.999982 -9.2467786e-12 0
-9.999982 -7.2796178e-10 0
-9.999982 6.4351305e-07 0
-9.9999822 1.7753678e-05 0
-9.9999883 -0.009082241 0
-10.00858 0.0085800486 0
-10.009082 -1.1691367e-05 0
-10.00908 -6.325995e-07 0
-10.00908 5.6697216e-10 0
-10.00908 9.1909136e-12 0
-10.00908 -5.2841239e-15 0
-10.00908 -5.7055641e-17 0
-10.00908 -2.5141456e-15 0
-10.00908 5.8969899e-15 0
-10.00908 -5.077895e-15 0
-10.00908 -8.9958479e-17 0
-10.00908 4.9108067e-15 0
-10.00908 -5.0582944e-15 0
-10.00908 -2.0556234e-16 0
-10.00908 1.0737407e-16 0
-10.00908 5.2533154e-15 0
-10.00908 -5.2576932e-15 0
-10.00908 -1.8622062e-17 0
-10.00908 2.4493842e-16 0
-10.00908 7.6388494e-15 0
-10.00908 -9.1885104e-12 0
-10.00908 -5.6697872e-10 0
-10.00908 6.325995e-07 0
-10.009082 1.1691367e-05 0
-10.00858 -0.0085800486 0
-3.5169227 7.4785497 0
-5.6832568 -5.276633 0
-7.4649571 -2.0571433 0
4.9414236 -2.144094 0
11.175097 1.043519 0
10.793344 -5.262957 0
0.85509859 -8.2995716 0
-9.9989253 -0.46244626 0
3.1324027 -0.11488432 0
2.2035029 0.0023958384 0
8.806556 -4.7638733 0
-8.729944 -4.9213066 0
3.8533893 8.2194656 0
-8.6606679 5.0129523 0
2.2060647 -0.032085638 0
2.203293 0.00026247694 0
3.1261067 0.17275173 0
1.7388171 -3.0559338 0
-10.992949 -3.8519139 0
-2.2535224 -9.1890716 0
-7.2538857 -5.0703338 0
-3.9968942 5.9837256 0
-14.400579 -6.9128118 0
-6.364068 9.4177505 0
-3.4973198 10.079956 0
2.6756884 -13.726701 0
9.4866424 3.3174268 0
-5.4285314 -9.7961444 0
0.65235145 -8.0931851 0
-11.122396 7.6304132 0
8.1431409 -4.8227138 0
-6.7819763 0.2178982 0
4.0607255 7.9985261 0
-9.9916114 0.15968872 0
-2.2862918 -0.0096185097 0
-8.7942621 4.7691267 0
-5.098007 -8.3910602 0
9.5265554 3.7109154 0
9.0518677 -4.3306212 0
-2.2687034 0.021306773 0
-2.2926396 0.0057585533 0
-10.029652 -0.16712195 0
2.0315553 -14.536399 0
9.8816239 2.1228683 0
2.9233866 -0.39749548 0
10.284853 5.6177982 0
7.7259599 -6.4742193 0
-5.4416301 9.7792611 0
9.4422593 -3.4338703 0
2.6756885 13.726701 0
-0.19108338 -9.221064 0
-3.5020956 9.7668353 0
0.14426689 5.4469404 0
9.0677189 2.8145765 0
-8.9849682 1.8931638 0
-2.3085218 10.429174 0
3.8849367 8.8618618 0
-1.4900226 1.9199517 0
3.5210568 9.7161297 0
2.2880297 0.014560999 0
9.2886606 -3.8270959 0
-9.142843 -3.9200744 0
12.818796 4.1069221 0
-9.101406 4.0172793 0
2.2743036 -0.023749778 0
2.2936162 -0.009134896 0
-10.194544 0.05720864 0
-4.0690751 10.119362 0
1.4120394 -7.1823006 0
-4.7509978 -11.404131 0
-10.086675 0.38418097 0
-5.7099092 4.5285908 0
0.45067416 5.3977886 0
-13.494943 -3.3073584 0
-0.19941979 9.1972074 0
0.49895472 -3.6816003 0
-6.8351366 -10.619265 0
4.7689178 -5.4105625 0
-6.3401444 -1.4833533 0
3.8251717 5.5856781 0
6.2601186 2.3082213 0
6.7071666 9.7168385 0
-3.4739114 0.043605583 0
-11.637302 -5.4679483 0