# vtk DataFile Version 4.0
hesp visualization file
ASCII
DATASET UNSTRUCTURED_GRID
POINTS 32 double
5.5067434 1.1567427 4
5.5350099 2.2583454 4
5.5350099 3.3539649 4
5.5067434 4.4555675 4
6.6083468 1.1850091 4
6.6192716 2.2692699 4
6.6192716 3.3430404 4
6.6083468 4.4273012 4
7.7039681 1.1850093 4
7.693044 2.2692699 4
7.693044 3.3430403 4
7.7039681 4.4273009 4
8.8055747 1.156744 4
8.7773093 2.2583459 4
8.7773093 3.3539644 4
8.8055747 4.4555662 4
12.806736 1.156744 4
12.835001 2.2583459 4
12.835001 3.3539644 4
12.806736 4.4555662 4
13.908342 1.1850093 4
13.919266 2.2692699 4
13.919266 3.3430403 4
13.908342 4.4273009 4
15.003963 1.1850091 4
14.993039 2.2692699 4
14.993039 3.3430404 4
15.003963 4.4273012 4
16.105567 1.1567427 4
16.0773 2.2583454 4
16.0773 3.3539649 4
16.105567 4.4555675 4
CELLS 0 0
CELL_TYPES 0
POINT_DATA 32
SCALARS m double
LOOKUP_TABLE default
1
1
1
1
1
1
1
1
1
1
1
1
1
1
1
1
1
1
1
1
1
1
1
1
1
1
1
1
1
1
1
1
VECTORS v double
10.043237 0.043227393 0
10.076551 0.0084869222 0
10.076551 -0.0084869222 0
10.043237 -0.043227393 0
10.008509 0.076539342 0
9.9935393 -0.0064881757 0
9.9935393 0.0064881757 0
10.008509 -0.076539342 0
9.9915689 0.07654396 0
10.006554 -0.0064864798 0
10.006554 0.0064864798 0
9.9915689 -0.07654396 0
9.9569242 0.043257906 0
9.9236364 0.0084985134 0
9.9236364 -0.0084985134 0
9.9569242 -0.043257906 0
-9.9569242 0.043257906 0
-9.9236364 0.0084985134 0
-9.9236364 -0.0084985134 0
-9.9569242 -0.043257906 0
-9.9915689 0.07654396 0
-10.006554 -0.0064864798 0
-10.006554 0.0064864798 0
-9.9915689 -0.07654396 0
-10.008509 0.076539342 0
-9.9935393 -0.0064881757 0
-9.9935393 0.0064881757 0
-10.008509 -0.076539342 0
-10.043237 0.043227393 0
-10.076551 0.0084869222 0
-10.076551 -0.0084869222 0
-10.043237 -0.043227393 0
