# vtk DataFile Version 4.0
hesp visualization file
ASCII
DATASET UNSTRUCTURED_GRID
POINTS 32 double
0.8270947 0.61421255 4
-0.10464799 2.1725107 4
-0.10464799 3.4397996 4
0.8270947 4.9980977 4
1.3238149 -1.3144193 4
1.8365197 1.7737731 4
1.8365197 3.8385371 4
1.3238149 6.9267295 4
5.8385297 -3.5179625 4
3.5697822 -0.045861403 4
3.5697822 5.6581716 4
5.8385297 9.1302728 4
8.6219497 -3.9380416 4
9.3335149 1.3842455 4
9.3335149 4.2280647 4
8.6219497 9.5503518 4
12.990361 -3.9380416 4
12.278795 1.3842455 4
12.278795 4.2280647 4
12.990361 9.5503518 4
15.77378 -3.5179625 4
18.042528 -0.045861403 4
18.042528 5.6581716 4
15.77378 9.1302728 4
20.288495 -1.3144193 4
19.775791 1.7737731 4
19.775791 3.8385371 4
20.288495 6.9267295 4
20.785216 0.61421255 4
21.716958 2.1725107 4
21.716958 3.4397996 4
20.785216 4.9980977 4
CELLS 0 0
CELL_TYPES 0
POINT_DATA 32
SCALARS m double
LOOKUP_TABLE default
1
1
1
1
1
1
1
1
1
1
1
1
1
1
1
1
1
1
1
1
1
1
1
1
1
1
1
1
1
1
1
1
VECTORS v double
-10.611017 -1.3021638 0
-11.971494 -0.19893466 0
-11.971494 0.19893466 0
-10.611017 1.3021638 0
-12.473133 -4.5752756 0
-9.6846233 -0.19055735 0
-9.6846233 0.19055735 0
-12.473133 4.5752756 0
-6.2419472 -8.7277414 0
-8.302152 -3.1867046 0
-8.302152 3.1867046 0
-6.2419472 8.7277414 0
-3.0710906 -7.7757655 0
-1.4053043 -0.91768495 0
-1.4053043 0.91768495 0
-3.0710906 7.7757655 0
3.0710906 -7.7757655 0
1.4053043 -0.91768495 0
1.4053043 0.91768495 0
3.0710906 7.7757655 0
6.2419472 -8.7277414 0
8.302152 -3.1867046 0
8.302152 3.1867046 0
6.2419472 8.7277414 0
12.473133 -4.5752756 0
9.6846233 -0.19055735 0
9.6846233 0.19055735 0
12.473133 4.5752756 0
10.611017 -1.3021638 0
11.971494 -0.19893466 0
11.971494 0.19893466 0
10.611017 1.3021638 0
