# vtk DataFile Version 4.0
hesp visualization file
ASCII
DATASET UNSTRUCTURED_GRID
POINTS 1250 double
34.124875 4.0266841 4
30.275061 1.9361287 4
33.598678 4.9221343 4
31.642818 3.7311132 4
30.071929 5.6464286 4
30.808764 6.7481283 4
31.706216 7.9160741 4
30.714452 9.0087027 4
30.407554 10.099316 4
30.406116 11.22461 4
30.421486 12.431214 4
30.631864 13.792777 4
31.472294 15.288141 4
30.62785 15.384772 4
30.406114 16.837053 4
30.406115 17.959395 4
30.407367 19.084466 4
30.347167 20.095354 4
31.012515 19.979952 4
30.153646 20.686381 4
32.004798 23.186273 4
32.302034 25.004722 4
34.189935 24.513109 4
30.302634 27.170145 4
33.749116 25.92054 4
30.31715 -6.8596405 4
34.46723 1.6283022 4
30.640113 0.016208323 4
32.213595 4.5047972 4
33.628803 5.9175858 4
31.174983 6.9850204 4
31.355069 7.3737195 4
31.006031 9.4557426 4
30.919617 10.107564 4
30.919621 11.224632 4
30.903837 12.272544 4
30.658754 13.208788 4
29.791484 14.022812 4
30.661039 15.980679 4
30.919621 16.836798 4
30.919621 17.959388 4
30.919619 19.07691 4
31.01327 19.704801 4
30.83805 21.542494 4
31.198102 22.287453 4
30.99464 22.699679 4
31.293318 24.378193 4
30.644335 29.165247 4
34.467218 27.555704 4
30.31715 36.043654 4
31.813927 0.37046145 4
32.385092 4.0339142 4
31.027911 5.96545 4
32.149324 5.5492616 4
31.054758 4.9274633 4
30.886475 8.6278331 4
32.063022 10.702725 4
32.063979 8.7549169 4
32.042884 10.099478 4
31.732184 11.224697 4
31.736267 12.39444 4
31.993048 13.710665 4
32.860702 15.132228 4
31.990392 15.467841 4
31.732069 16.837011 4
31.732114 17.959322 4
32.044311 19.083551 4
31.666913 20.916678 4
32.121562 18.662159 4
31.022233 20.481202 4
31.225715 23.649525 4
33.778266 24.069917 4
31.596539 23.947162 4
32.439656 25.220348 4
31.814367 28.813285 4
31.625621 -1.7258315 4
30.445393 -3.0918593 4
31.930698 2.7041611 4
33.110753 3.9447464 4
29.879192 6.298763 4
31.18705 7.9494682 4
32.776192 8.5140524 4
31.997852 9.2639306 4
32.998556 11.241954 4
32.245414 11.224184 4
32.240955 12.309942 4
31.946336 13.33767 4
31.040906 14.2997 4
31.947105 15.849153 4
32.245391 16.836858 4
32.2454 17.959623 4
33.4843 18.340277 4
31.995702 19.932357 4
32.762315 20.797735 4
30.285081 22.37869 4
32.219183 24.712187 4
33.102308 25.345509 4
31.925411 26.470242 4
30.445396 32.275872 4
31.625621 30.909845 4
33.537005 5.4519337 4
30.955063 3.842985 4
30.335505 1.3985935 4
35.245182 4.4138018 4
33.256743 7.4332837 4
31.480208 6.3763118 4
32.19092 7.9603605 4
32.75588 8.8044849 4
32.739207 9.5122361 4
33.165592 11.583893 4
33.058796 12.363348 4
33.189374 13.699373 4
32.85963 15.449818 4
33.075723 15.921901 4
33.058353 16.836964 4
33.198754 17.768637 4
32.347708 19.38783 4
32.689438 20.367742 4
32.322442 21.739793 4
31.714512 22.239266 4
31.818217 21.949861 4
34.128479 23.510148 4
30.334982 27.780292 4
30.948932 25.341027 4
34.33239 25.020559 4
30.838833 -1.3583053 4
32.551783 -1.9542802 4
35.857022 5.2351796 4
31.775249 6.7219702 4
33.974432 6.4465723 4
32.201735 7.2982999 4
33.320653 8.177464 4
33.262331 8.9763202 4
33.262347 10.102166 4
33.662635 11.10655 4
33.571029 12.335704 4
33.431462 13.318565 4
33.693424 13.608013 4
33.593711 15.724253 4
33.571511 16.836907 4
33.531454 17.613867 4
33.26237 19.081803 4
33.262365 20.205815 4
33.319512 21.009973 4
32.225269 22.274143 4
34.261443 21.630129 4
31.64736 22.549606 4
35.81595 23.66822 4
32.551966 31.138344 4
30.838831 30.542319 4
31.793006 1.9487863 4
36.329319 3.0184166 4
31.162773 2.3138462 4
33.219136 5.0438632 4
31.804931 5.9425673 4
34.525286 7.0146563 4
34.570221 7.5741295 4
34.385005 8.9852645 4
34.384935 10.102136 4
34.384931 11.22462 4
34.384949 12.350377 4
34.395618 13.549855 4
33.526488 14.989142 4
34.396203 15.632061 4
34.384933 16.83694 4
34.384932 17.959393 4
34.384934 19.081875 4
34.384965 20.202142 4
34.468546 21.488375 4
33.450416 22.44137 4
32.207639 22.717391 4
33.490323 24.406246 4
31.116012 26.821559 4
36.32732 26.164915 4
31.794568 27.234668 4
37.696877 -4.2148184 4
34.179134 3.5100123 4
35.79309 2.2690537 4
33.84684 6.1826578 4
35.3865 5.6564377 4
34.602108 6.6909269 4
34.623304 7.9138043 4
34.897916 8.9764373 4
34.898177 10.102169 4
34.898183 11.22462 4
34.898165 12.34501 4
34.886349 13.415877 4
35.500343 13.89009 4
34.885745 15.769584 4
34.898184 16.836925 4
34.898181 17.959393 4
34.898177 19.081845 4
34.897965 20.205446 4
34.855506 21.179678 4
34.566358 22.412238 4
36.116776 23.59638 4
33.545987 22.704691 4
35.791478 26.914131 4
34.1874 25.689515 4
37.696877 33.398832 4
32.806928 3.0648014 4
33.381973 1.8772527 4
36.895292 2.5996233 4
36.334111 5.3818312 4
36.375392 6.3756384 4
36.015227 6.7685511 4
35.719288 7.8995269 4
35.779637 9.4421571 4
35.711695 10.102148 4
35.711695 11.22462 4
35.711695 12.347442 4
35.711939 13.483503 4
35.049229 15.028212 4
35.711996 15.700317 4
35.711695 16.836932 4
35.711695 17.959393 4
35.711695 19.081865 4
35.755795 19.752339 4
35.71356 21.321879 4
35.749002 22.363048 4
35.245485 22.761348 4
36.770043 23.843801 4
36.878433 26.601192 4
33.382055 27.306412 4
32.507277 25.75608 4
32.032315 1.0319318 4
34.712299 -1.4806048 4
35.445965 2.8682849 4
35.956768 4.4919828 4
35.982217 8.650037 4
36.019323 7.2470766 4
36.218112 7.786225 4
36.009035 9.1101761 4
36.225401 10.102153 4
36.225402 11.22462 4
36.225402 12.346877 4
36.225037 13.461044 4
35.941756 14.381203 4
36.225055 15.723181 4
36.225402 16.83693 4
36.225402 17.959393 4
36.225401 19.08186 4
36.03761 20.047995 4
36.223967 21.378081 4
36.179363 22.598875 4
35.985438 20.543469 4
36.006093 24.655595 4
35.447942 26.313875 4
34.712299 30.664616 4
32.029947 28.153276 4
31.94199 0.74396906 4
35.52013 1.7709001 4
36.857747 5.110269 4
35.416338 3.6801295 4
37.420418 5.2837861 4
37.11719 6.9138796 4
37.044904 8.047687 4
37.038514 8.9797185 4
37.038515 10.102158 4
37.038515 11.22462 4
37.038515 12.347099 4
37.038518 13.47083 4
37.197793 14.85774 4
37.038517 15.713143 4
37.038515 16.836931 4
37.038515 17.959393 4
37.038515 19.081855 4
37.038514 20.204312 4
37.046196 21.137691 4
37.130533 22.25627 4
37.238744 23.756387 4
35.470465 25.626425 4
36.444929 24.205199 4
35.519491 27.413892 4
31.94316 28.445933 4
33.687717 0.69091406 4
36.733722 0.92182568 4
37.128177 7.6843512 4
36.576961 3.6777432 4
36.308454 5.7139227 4
37.487514 6.5776542 4
37.535991 7.8329307 4
37.55295 8.9796834 4
37.552964 10.102159 4
37.552965 11.22462 4
37.552965 12.347074 4
37.552961 13.468816 4
37.366096 14.470288 4
37.552962 15.715215 4
37.552965 16.836931 4
37.552965 17.959393 4
37.552964 19.081855 4
37.552949 20.204321 4
37.536314 21.351104 4
37.472984 22.612179 4
36.946277 23.354954 4
36.572047 25.508841 4
37.123722 21.500081 4
36.734785 28.266828 4
33.687726 28.493112 4
34.692228 1.1282779 4
34.844748 1.7320955 4
38.3436 2.646019 4
38.719091 5.3685004 4
37.448906 5.5511276 4
38.371389 6.8024937 4
38.365296 7.8572096 4
38.365297 8.9796952 4
38.365297 10.102158 4
38.365297 11.22462 4
38.365297 12.347083 4
38.365297 13.469595 4
38.366485 14.621173 4
38.365297 15.714417 4
38.365297 16.836931 4
38.365297 17.959393 4
38.365297 19.081855 4
38.365297 20.204318 4
38.365296 21.326804 4
38.371684 22.379951 4
37.446468 23.563911 4
38.728807 23.836175 4
38.336519 26.527022 4
34.845336 27.453061 4
34.692229 28.055732 4
35.685945 0.69263769 4
37.692373 1.3247507 4
36.922533 3.1236087 4
37.64712 4.4337299 4
38.587514 5.7924566 4
38.866109 6.6999118 4
38.88056 7.8572401 4
38.880577 8.979697 4
38.880578 10.102158 4
38.880578 11.22462 4
38.880578 12.347083 4
38.880578 13.469518 4
38.879193 14.575657 4
38.880578 15.714496 4
38.880578 16.836931 4
38.880578 17.959393 4
38.880578 19.081855 4
38.880577 20.204316 4
38.88056 21.326773 4
38.865709 22.484877 4
38.566113 23.577835 4
37.646897 24.747557 4
36.923214 26.053975 4
37.694054 27.860383 4
35.686145 28.488628 4
37.51058 1.1485052 4
37.072694 1.9252397 4
37.893449 2.9152712 4
38.793188 4.7200307 4
39.797228 5.3698126 4
39.691995 6.7346469 4
39.691995 7.8572402 4
39.691995 8.9796964 4
39.691995 10.102158 4
39.691995 11.22462 4
39.691995 12.347083 4
39.691995 13.469545 4
39.691996 14.593006 4
39.691995 15.714469 4
39.691995 16.836931 4
39.691995 17.959393 4
39.691995 19.081855 4
39.691995 20.204317 4
39.691995 21.326773 4
39.691995 22.449369 4
39.693321 23.539661 4
38.791937 24.471852 4
37.893579 26.26997 4
37.076505 27.268945 4
37.510014 28.033079 4
38.05904 1.1269985 4
38.056503 2.2520255 4
39.535792 4.7533854 4
40.152745 3.8751104 4
40.081064 5.7272203 4
40.207945 6.7348352 4
40.207955 7.8572313 4
40.207955 8.9796964 4
40.207955 10.102158 4
40.207955 11.22462 4
40.207955 12.347083 4
40.207955 13.469545 4
40.207954 14.591481 4
40.207955 15.714469 4
40.207955 16.836931 4
40.207955 17.959393 4
40.207955 19.081855 4
40.207955 20.204317 4
40.207955 21.326782 4
40.207946 22.449179 4
40.204667 23.588139 4
40.136944 25.293732 4
39.537904 24.428555 4
38.056635 26.932315 4
38.059034 28.057011 4
39.181854 1.1268053 4
39.181875 2.2449489 4
41.601455 2.5284742 4
41.049691 4.9286316 4
41.018738 5.6023307 4
41.018613 6.7347768 4
41.018613 7.8572343 4
41.018613 8.9796964 4
41.018613 10.102158 4
41.018613 11.22462 4
41.018613 12.347083 4
41.018613 13.469545 4
41.018613 14.592007 4
41.018613 15.714469 4
41.018613 16.836931 4
41.018613 17.959393 4
41.018613 19.081855 4
41.018613 20.204317 4
41.018613 21.326779 4
41.018613 22.449237 4
41.018609 23.571854 4
41.06684 24.264773 4
41.596213 26.654711 4
39.181875 26.939064 4
39.181854 28.057208 4
40.304317 1.1268062 4
40.304704 2.2462105 4
40.299186 3.3568291 4
41.222825 4.4593688 4
41.534701 5.6174191 4
41.534874 6.7347699 4
41.534874 7.8572343 4
41.534874 8.9796964 4
41.534874 10.102158 4
41.534874 11.22462 4
41.534874 12.347083 4
41.534874 13.469545 4
41.534874 14.592007 4
41.534874 15.714469 4
41.534874 16.836931 4
41.534874 17.959393 4
41.534874 19.081855 4
41.534874 20.204317 4
41.534874 21.326779 4
41.534874 22.449243 4
41.534858 23.571768 4
41.222747 24.723842 4
40.299226 25.827097 4
40.304709 26.937789 4
40.304317 28.057207 4
41.426778 1.1268066 4
41.480109 2.0613886 4
41.426722 3.3673326 4
[...]
POINT_DATA 1250
SCALARS m double
LOOKUP_TABLE default
1
1
1
1
1
1
1
1
1
1
1
1
1
1
1
1
1
1
1
1
1
1
1
1
1
1
1
1
1
1
1
1
1
1
1
1
1
1
1
1
1
1
1
1
1
1
1
1
1
1
1
1
1
1
1
1
1
1
1
1
1
1
1
1
1
1
1
1
1
1
1
1
1
1
1
1
1
1
1
1
1
1
1
1
1
1
1
1
1
1
1
1
1
1
1
1
1
1
1
1
1
1
1
1
1
1
1
1
1
1
1
1
1
1
1
1
1
1
1
1
1
1
1
1
1
1
1
1
1
1
1
1
1
1
1
1
1
1
1
1
1
1
1
1
1
1
1
1
1
1
1
1
1
1
1
1
1
1
1
1
1
1
1
1
1
1
1
1
1
1
1
1
1
1
1
1
1
1
1
1
1
1
1
1
1
1
1
1
1
1
1
1
1
1
1
1
1
1
1
1
1
1
1
1
1
1
1
1
1
1
1
1
1
1
1
1
1
1
1
1
1
1
1
1
1
1
1
1
1
1
1
1
1
1
1
1
1
1
1
1
1
1
1
1
1
1
1
1
1
1
1
1
1
1
1
1
1
1
1
1
1
1
1
1
1
1
1
1
1
1
1
1
1
1
1
1
1
1
1
1
1
1
1
1
1
1
1
1
1
1
1
1
1
1
1
1
1
1
1
1
1
1
1
1
1
1
1
1
1
1
1
1
1
1
1
1
1
1
1
1
1
1
1
1
1
1
1
1
1
1
1
1
1
1
1
1
1
1
1
1
1
1
1
1
1
1
1
1
1
1
1
1
1
1
1
1
1
1
1
1
1
1
1
1
1
1
1
1
1
1
1
1
1
1
1
1
1
1
1
1
1
1
1
1
1
1
1
1
1
1
1
1
1
1
1
1
1
1
1
1
1
1
1
1
1
1
1
1
1
1
1
1
1
1
1
1
1
1
1
1
1
1
1
1
1
1
1
1
1
1
1
1
1
1
1
1
1
1
1
1
1
1
1
1
1
1
1
1
1
1
1
1
1
1
1
1
1
1
1
1
1
1
1
1
1
1
1
1
1
1
1
1
1
1
1
1
1
1
1
1
1
1
1
1
1
1
1
1
1
1
1
1
1
1
1
1
1
1
1
1
1
1
1
1
1
1
1
1
1
1
1
1
1
1
1
1
1
1
1
1
1
1
1
1
1
1
1
1
1
1
1
1
1
1
1
1
1
1
1
1
1
1
1
1
1
1
1
1
1
1
1
1
1
1
1
1
1
1
1
1
1
1
1
1
1
1
1
1
1
1
1
1
1
1
1
1
1
1
1
1
1
1
1
1
1
1
1
1
1
1
1
1
1
1
1
1
1
1
1
1
1
1
1
1
1
1
1
1
1
1
1
1
1
1
1
1
1
1
1
1
1
1
1
1
1
1
1
1
1
1
1
1
1
1
1
1
1
1
1
1
1
1
1
1
1
1
1
1
1
1
1
1
1
1
1
1
1
1
1
1
1
1
1
1
1
1
1
1
1
1
1
1
1
1
1
1
1
1
1
1
1
1
1
1
1
1
1
1
1
1
1
1
1
1
1
1
1
1
1
1
1
1
1
1
1
1
1
1
1
1
1
1
1
1
1
1
1
1
1
1
1
1
1
1
1
1
1
1
1
1
1
1
1
1
1
1
1
1
1
1
1
1
1
1
1
1
1
1
1
1
1
1
1
1
1
1
1
1
1
1
1
1
1
1
1
1
1
1
1
1
1
1
1
1
1
1
1
1
1
1
1
1
1
1
1
1
1
1
1
1
1
1
1
1
1
1
1
1
1
1
1
1
1
1
1
1
1
1
1
1
1
1
1
1
1
1
1
1
1
1
1
1
1
1
1
1
1
1
1
1
1
1
1
1
1
1
1
1
1
1
1
1
1
1
1
1
1
1
1
1
1
1
1
1
1
1
1
1
1
1
1
1
1
1
1
1
1
1
1
1
1
1
1
1
1
1
1
1
1
1
1
1
1
1
1
1
1
1
1
1
1
1
1
1
1
1
1
1
1
1
1
1
1
1
1
1
1
1
1
1
1
1
1
1
1
1
1
1
1
1
1
1
1
1
1
1
1
1
1
1
1
1
1
1
1
1
1
1
1
1
1
1
1
1
1
1
1
1
1
1
1
1
1
1
1
1
1
1
1
1
1
1
1
1
1
1
1
1
1
1
1
1
1
1
1
1
1
1
1
1
1
1
1
1
1
1
1
1
1
1
1
1
1
1
1
1
1
1
1
1
1
1
1
1
1
1
1
1
1
1
1
1
1
1
1
1
1
1
1
1
1
1
1
1
1
1
1
1
1
1
1
1
1
1
1
1
1
1
1
1
1
1
1
1
1
1
1
1
1
1
1
1
1
1
1
1
1
1
1
1
1
1
1
1
1
1
1
1
1
1
1
1
1
1
1
1
1
1
1
1
1
1
1
1
1
1
1
1
1
1
1
1
1
1
1
1
1
1
1
1
1
1
1
1
1
1
1
1
1
1
1
1
1
1
1
1
1
1
1
1
1
1
1
1
1
1
1
1
1
1
1
1
1
1
1
1
1
1
1
1
1
1
1
1
1
1
1
1
1
1
1
1
1
1
1
1
1
1
1
1
1
1
1
1
1
1
1
1
1
1
1
1
1
1
1
1
1
1
1
1
1
1
1
1
1
1
1
1
1
1
1
1
1
1
1
1
1
1
1
1
1
1
1
1
1
1
1
1
1
1
1
1
1
1
1
1
1
1
1
1
1
1
1
1
1
1
1
1
1
1
1
1
1
1
1
1
1
1
1
1
1
1
1
1
1
1
1
1
1
1
VECTORS v double
3.5662841 7.5195168 0
5.8344744 -10.973466 0
3.9302745 3.7840671 0
-7.6126327 -7.0699724 0
-3.3908844 -4.5463683 0
0.94283259 0.86317548 0
12.53564 2.0369497 0
10.020097 0.43708916 0
-9.9918633 -0.18689266 0
-10.01123 -0.00054905083 0
-9.1922357 4.0522809 0
8.7135823 4.9076783 0
8.9945652 4.4141397 0
8.62972 -5.0157167 0
-10.01119 0.0059001156 0
-10.011259 0.00015864054 0
-9.9944977 0.17170544 0
-1.9359839 -3.5169105 0
11.884698 -5.3665583 0
2.270243 -9.1196426 0
7.2423639 -5.1798668 0
3.319073 -3.3111087 0
14.970946 -5.5084454 0
6.3276014 7.6717549 0
-4.5003088 8.870187 0
-2.6393648 -13.726701 0
6.124324 4.5782516 0
5.4277296 -9.7858029 0
10.153371 1.2781975 0
3.5386064 -8.343471 0
-7.5550463 2.152566 0
-3.8344406 -5.1316061 0
-3.8703579 7.9708194 0
10.007729 0.22584412 0
10.009003 0.00055544373 0
9.1837923 -3.8971675 0
-9.2626733 -3.8855624 0
-9.3713543 -3.592694 0
-9.2254785 3.9674393 0
10.008933 -0.0069229128 0
10.008983 -0.00017891527 0
10.008086 -0.20590253 0
-2.7457485 -12.583797 0
-9.7808431 2.1601074 0
-2.7863216 0.44152186 0
-9.8465193 5.3495893 0
-8.2071782 -6.4335282 0
5.4415223 9.781748 0
6.1241071 -4.5782781 0
-2.6393649 13.726701 0
0.18738563 -9.3397604 0
6.7141172 7.9867883 0
-8.677894 5.9755586 0
2.6509282 0.5533725 0
8.5304892 -5.4565035 0
-11.429475 2.5638397 0
-1.9298045 9.529255 0
13.641846 1.5875733 0
10.049031 0.00021949798 0
-10.007972 0.0038636788 0
-9.7889809 2.1969965 0
9.3108343 3.6126813 0
9.4135092 3.4706373 0
9.2580426 -3.6930586 0
-10.013141 0.0038077894 0
-10.011719 -0.0049914145 0
10.156025 -0.072080884 0
4.0970444 10.111341 0
-1.4226036 -7.2477807 0
2.8583154 -13.372293 0
10.03401 0.28349016 0
5.7411089 4.2130327 0
-0.37737939 5.4771333 0
12.145488 1.4210271 0
0.19637285 9.3318623 0
-0.49819451 -3.6819406 0
6.835513 -10.619282 0
-4.7999971 -5.3721742 0
5.9845026 -1.0711996 0
-13.265122 -2.9059709 0
0.92803829 9.7474288 0
6.4650249 11.703307 0
-8.5384541 5.1187814 0
-0.32453633 8.1333432 0
10.006751 -0.025649534 0
9.7792475 -2.0323045 0
-9.9017041 -1.8472765 0
-9.8561884 -1.8145901 0
-9.8909218 1.8743732 0
10.007002 -0.0038564617 0
10.006968 0.010924183 0
8.2815032 11.725977 0
-8.4595874 -5.1599681 0
5.9994102 -8.5947187 0
6.7113348 13.798843 0
3.0784677 10.279716 0
6.0177923 2.1562208 0
-4.8240596 5.3299691 0
6.8355194 10.619287 0
-0.49819461 3.681942 0
-3.2298521 17.45194 0
8.2039397 4.3298114 0
8.7592623 -4.897174 0
9.1665659 -5.1124401 0
-6.2927551 12.520315 0
-5.7429869 -8.2188195 0
-9.0425781 4.2875425 0
4.1152722 -3.9676906 0
-0.81843499 -9.1064367 0
-4.4977526 17.775968 0
-9.9902656 0.7308915 0
-2.4275891 10.358269 0
-4.6684033 0.7499475 0
-9.1066675 9.5877657 0
-10.013953 0.0016497356 0
0.76526762 -9.1315004 0
-6.8521397 4.7301993 0
3.5193057 4.0762632 0
-6.1848312 7.3509616 0
-1.0136709 -10.507806 0
-5.4825181 -8.594352 0
0.61996687 -11.85399 0
8.7587875 4.8692234 0
8.1589138 -4.3158554 0
5.808092 -6.7091953 0
-1.1221847 -6.3277407 0
-1.9947534 -10.927139 0
9.0886665 -1.3658885 0
-4.0602531 10.91631 0
2.7543186 -3.9734837 0
-9.5572524 -6.0453272 0
-9.0916038 4.6323701 0
-10.01661 -0.052232403 0
-10.008555 -0.00072521322 0
13.461681 -7.0348931 0
9.9815986 -0.65272408 0
2.418878 -8.9295042 0
2.6243578 -9.2229366 0
10.595737 -1.4988584 0
10.005953 -0.00094520179 0
5.481189 -19.294006 0
-10.007024 -0.0020577445 0
-10.011091 0.023924646 0
-9.1096102 -4.5830657 0
-10.95171 -1.2837906 0
-4.0238951 1.1289233 0
-7.8517459 -2.2324741 0
6.6758882 -9.1045835 0
-1.9941668 10.927306 0
-1.1221907 6.3277444 0
-2.3889319 9.4835987 0
1.711849 3.5479246 0
-6.4067865 -6.8676247 0
6.7793655 5.718158 0
-14.687512 2.437397 0
0.55197021 7.9778071 0
4.2604611 -10.349302 0
-10.010334 0.24004835 0
-10.013355 -0.00091051072 0
-10.014068 -6.4958378e-05 0
-10.012832 0.14425558 0
-9.4381407 3.577666 0
-9.4655011 3.4785719 0
-9.4055187 -3.6720528 0
-10.013743 0.00044747668 0
-10.013753 -4.0862532e-06 0
-10.01337 0.00083335616 0
-10.012413 -0.091409107 0
-2.8849342 3.7297583 0
-11.242672 -4.8414225 0
-11.621521 -7.5653459 0
6.2508439 -4.5051391 0
-6.855026 6.4051626 0
1.6909813 -3.5449542 0
-2.3564417 -9.495016 0
4.8370531 -9.9977527 0
-5.9072248 -7.3146386 0
1.7372964 -3.4518267 0
5.6162227 9.8583861 0
-6.2538307 6.030715 0
-6.616248 -4.9438986 0
-5.4226292 6.5897053 0
10.002463 -0.20231377 0
10.006351 0.00070720387 0
10.006266 -1.1314353e-06 0
10.005395 -0.1244407 0
9.4128391 -3.1454408 0
4.9516033 -9.6487066 0
9.3808488 3.2292634 0
10.00631 -0.00035482213 0
10.006208 -1.658928e-05 0
10.006344 -0.00066219856 0
10.004686 0.07432108 0
9.9927816 -10.601818 0
-10.170719 -0.42685392 0
-9.6301831 0.75501682 0
-3.7477371 -1.9864767 0
1.7324137 3.448103 0
-5.3235364 7.9919624 0
4.8370532 9.9977527 0
-1.2917423 -6.491625 0
-9.8576714 -1.5969277 0
6.0416053 -7.1766003 0
-6.5002478 -0.39944191 0
2.692933 -3.1365348 0
10.061778 0.48766156 0
-9.6033878 2.6234204 0
0.440279 18.360593 0
-10.012392 -0.0017778587 0
-10.01243 -3.2448569e-06 0
-10.012423 0.015395476 0
-10.005493 0.61918386 0
-5.4902339 7.1649033 0
-9.9964 -0.61590566 0
-10.01243 7.7456243e-05 0
-10.012431 2.7717798e-06 0
-10.012429 0.0016659001 0
-0.52314208 -17.981451 0
-9.9100902 -1.0702439 0
-7.9851828 -5.453807 0
-8.06668 -5.7821206 0
4.5261304 0.85807341 0
5.9842247 7.240783 0
-9.8573008 1.5954724 0
-4.2128119 2.9747548 0
1.5216541 -1.2446902 0
-3.9332518 -8.2576463 0
2.6899839 -3.387077 0
-0.27959241 -0.41088643 0
2.5752564 -9.0818726 0
-7.4760601 13.742077 0
9.6108128 -3.0349213 0
-4.2431162 8.3511962 0
10.007157 -0.00068835465 0
10.007474 -2.7059616e-06 0
10.007462 -0.012880919 0
9.9893148 -0.51533199 0
-9.6040234 -3.0581409 0
9.9905175 0.52786317 0
10.007475 -5.9362635e-05 0
10.007474 2.7443551e-06 0
10.00719 0.00063892988 0
-2.9547278 -9.3232936 0
9.9155513 1.7330259 0
7.9199455 6.5674649 0
2.1968675 9.6090971 0
0.12438045 -0.10700669 0
2.701312 3.3759658 0
-3.9332494 8.2576405 0
1.3669272 0.7318412 0
-11.659561 -4.1901689 0
-9.9921724 -1.0670185 0
2.3214713 2.1415991 0
-7.3205055 -7.284677 0
11.076066 -1.5467006 0
-5.8409009 8.3906193 0
-9.6174528 15.994497 0
-10.010508 0.00080276847 0
-10.010685 -2.2273099e-05 0
-10.010674 -5.8838287e-07 0
-10.010675 0.00068585248 0
-10.010529 0.054793986 0
-0.24958789 11.088975 0
-10.010523 -0.056782124 0
-10.010674 1.0744978e-05 0
-10.010674 5.7212828e-07 0
-10.010686 2.399047e-05 0
-10.010528 -0.00010173051 0
-9.4883786 -16.044645 0
-5.0896122 -8.9491507 0
8.7266203 -4.6022475 0
-6.7421046 8.4949838 0
-7.5888967 0.34302562 0
-9.997438 1.0742459 0
-11.542252 4.7500209 0
-7.9807979 -7.1910185 0
-9.7694599 -5.4764534 0
-0.95701689 1.7469774 0
-10.891197 0.011646003 0
-9.7856419 7.4397993 0
5.9670968 -8.0054439 0
9.6138653 -1.6575881 0
10.008566 -0.00088900104 0
10.00889 8.1477674e-06 0
10.008899 -2.7293505e-08 0
10.008899 -0.00055980907 0
10.008737 -0.045807958 0
-0.16858369 -8.7469642 0
10.008703 0.04680732 0
10.008899 -9.6654567e-06 0
10.008899 1.8485583e-08 0
10.00889 -8.268144e-06 0
10.008548 0.00031195064 0
9.6201167 1.6573882 0
5.2080018 8.4406428 0
10.180362 -6.966346 0
-10.958271 0.03176897 0
-1.0862326 -1.6736081 0
-9.7398581 5.5727823 0
-7.980642 7.1912244 0
-10.00417 0.040420457 0
-8.9863297 -3.4526367 0
3.6065459 1.3873081 0
4.0709272 5.642166 0
-9.5741876 1.0655685 0
-9.6694805 2.8695429 0
-10.009019 -0.00097405807 0
-10.00901 -5.1577901e-05 0
-10.009006 -4.1067498e-10 0
-10.009006 2.7267614e-08 0
-10.009006 9.3439863e-07 0
-10.009 0.002095315 0
-9.9450364 1.239146 0
-10.00901 -0.0021895261 0
-10.009006 9.2742621e-07 0
-10.009006 -2.7332586e-08 0
-10.009006 1.5429428e-10 0
-10.00901 4.9686318e-05 0
-10.009019 0.00098098608 0
-9.6531963 -2.936389 0
-9.8941945 -0.17933676 0
4.6932602 -3.100829 0
3.5436723 -1.5212647 0
-8.9822001 3.4606025 0
-10.004129 -0.040536562 0
-11.480839 -4.9503373 0
0.34509911 -5.1983329 0
-6.3381953 -6.6398242 0
-10.041797 -0.29610464 0
-9.7212186 2.5272062 0
9.5837986 -2.3322388 0
10.009869 0.00058229985 0
10.010096 3.7069836e-05 0
10.010105 8.1072818e-10 0
10.010105 -1.0255955e-09 0
10.010105 -8.7816484e-07 0
10.010109 -0.0017319846 0
9.9434376 -1.0306298 0
10.010102 0.0017639441 0
10.010105 -9.4553198e-07 0
10.010105 1.1689981e-09 0
10.010105 -5.5173629e-10 0
10.010095 -3.5532188e-05 0
10.009868 -0.0005832809 0
9.5670513 2.3855507 0
-10.586374 -2.1151591 0
-10.043432 0.27762009 0
-6.2962651 6.564924 0
0.49698808 5.1221335 0
-11.478375 4.9187327 0
4.3224079 -0.99825794 0
-8.8957322 -3.7741226 0
-9.7522527 -2.4030136 0
-9.8131683 2.0013688 0
-3.8573541 -10.250855 0
-10.007787 -0.0051616638 0
-10.007847 0.00024801868 0
-10.007847 9.411037e-08 0
-10.007847 8.8870789e-11 0
-10.007847 1.7509801e-11 0
-10.007847 5.7571638e-08 0
-10.007847 -6.1484318e-07 0
-10.007772 0.041801428 0
-10.007847 -5.0068789e-07 0
-10.007847 6.8176733e-08 0
-10.007847 -1.7236927e-11 0
-10.007847 -8.3464225e-11 0
-10.007847 -9.3770893e-08 0
-10.007847 -0.00026144449 0
-10.007805 0.0052963283 0
-9.9356447 -1.3394279 0
-9.8246948 -1.9339626 0
-9.7457343 2.4229846 0
-8.8541541 3.8771226 0
4.1534312 1.0111327 0
-10.044399 0.030728716 0
-10.044908 0.28362466 0
-6.3919927 8.6197799 0
-5.9662429 -8.8680927 0
3.549284 8.1710506 0
10.010809 0.0041961476 0
10.01088 -0.00020057412 0
10.010886 -1.254272e-09 0
10.010886 -5.5755085e-11 0
10.010886 -4.5334284e-13 0
10.010886 -2.0829001e-08 0
10.010886 -1.5328938e-07 0
10.010811 -0.034084463 0
10.010886 -6.6577002e-08 0
10.010886 -2.9407761e-08 0
10.010886 5.8273453e-13 0
10.010886 5.1135857e-11 0
10.010886 7.050499e-10 0
10.01088 0.00021168343 0
10.010829 -0.0041971711 0
9.9240902 1.0844493 0
-6.21906 8.6494756 0
-6.3780166 -8.6310102 0
-10.045513 -0.27125075 0
-10.045237 -0.031196131 0
-10.00004 0.0088334292 0
-10.000111 -0.00027857716 0
3.3492303 3.7497365 0
5.7605081 7.1870743 0
-10.000555 -0.41732432 0
-10.007367 0.00019303613 0
-10.007369 -3.3059242e-07 0
-10.007369 3.1889969e-11 0
-10.007369 2.5324191e-12 0
-10.007369 -6.4302762e-14 0
-10.007369 3.5250403e-10 0
-10.007369 -7.0459877e-09 0
-10.007369 -1.8518048e-08 0
-10.007369 -2.2963872e-08 0
-10.007369 3.5177849e-10 0
-10.007369 1.8752245e-13 0
-10.007369 -2.6518128e-12 0
-10.007369 1.3081832e-13 0
-10.007369 -3.6426162e-08 0
-10.007369 -0.00018368953 0
-10.00763 0.0059190631 0
6.0278874 -7.0183728 0
3.169644 -3.8618048 0
-10.000089 0.00028342332 0
-10.00004 -0.0088331321 0
-9.9999853 0.0088485128 0
-9.9926366 0.017792331 0
-10.051058 -0.10627653 0
-10.016968 -0.41286434 0
10.00331 0.33482102 0
10.011232 -0.00015277326 0
10.011232 2.9721957e-07 0
10.011232 1.719406e-11 0
10.011232 2.015851e-14 0
10.011232 -8.7855334e-14 0
10.011232 -8.2761302e-14 0
10.011232 2.2588182e-08 0
10.011232 -1.131407e-07 0
10.011232 2.5664112e-08 0
10.011232 3.6668746e-13 0
10.011232 1.83814e-13 0
10.011232 -4.1447279e-15 0
10.011232 -4.1408104e-11 0
10.011232 -1.1435574e-08 0
10.01123 0.00015520064 0
10.010652 0.00043832715 0
-10.021609 0.39597045 0
-10.050303 0.10707946 0
-9.9925304 -0.01800609 0
-9.9999852 -0.0088486731 0
-10.000001 0.0090242056 0
-7.0844873 -10.439552 0
-10.001048 -0.002055643 0
-9.8533126 1.9403508 0
-10.007653 0.0048901095 0
-10.007651 1.4456069e-06 0
-10.00765 -1.4561498e-09 0
-10.00765 1.6949259e-12 0
-10.00765 2.8078045e-15 0
-10.00765 -7.5314563e-14 0
-10.00765 -1.3885606e-13 0
-10.00765 1.8155307e-11 0
-10.00765 -1.1717816e-10 0
-10.00765 1.9155095e-11 0
-10.00765 1.4016248e-13 0
-10.00765 1.450724e-13 0
-10.00765 -5.035386e-15 0
-10.00765 -1.9445463e-12 0
-10.00765 -1.6090199e-09 0
-10.007651 -9.718216e-07 0
-10.007654 -0.0050828789 0
-9.8607363 -1.8933494 0
-10.001038 0.0020352531 0
-6.9196649 10.56242 0
-10 -0.0090271593 0
-10.000012 0.0088209688 0
-10.000248 3.0851982e-05 0
-10.000094 0.00016934325 0
9.846834 -1.580096 0
10.009275 -0.0040164542 0
10.009281 -1.7130296e-06 0
10.009282 -1.9613057e-09 0
10.009282 -1.1822165e-13 0
10.009282 5.910994e-15 0
10.009282 -1.4923043e-14 0
10.009282 -1.9057548e-14 0
10.009282 -2.063083e-14 0
10.009282 1.493523e-14 0
10.009282 3.293305e-14 0
10.009282 2.012078e-14 0
10.009282 2.4853711e-14 0
10.009282 -5.2682892e-15 0
10.009282 7.3179106e-14 0
10.009282 1.6719473e-09 0
10.009281 1.3288419e-06 0
10.009275 0.0041741571 0
9.8546553 1.5418765 0
-10.000094 -0.00017024944 0
-10.000245 -2.9035872e-05 0
-10.000012 -0.0088210385 0
-10.000001 0.0088086723 0
-10.000002 -1.2272735e-05 0
-10.000014 1.3047067e-05 0
-10.00038 6.9587617e-06 0
-10.000403 9.33645e-07 0
-10.000403 1.7648979e-08 0
-10.000403 4.1724748e-11 0
-10.000403 1.6631185e-14 0
-10.000403 5.8968143e-15 0
-10.000403 -5.0583658e-15 0
-10.000403 -8.0741261e-17 0
-10.000403 5.0321559e-15 0
-10.000403 -5.4557557e-15 0
-10.000403 -6.9525783e-17 0
-10.000403 1.0370152e-16 0
-10.000403 5.2300307e-15 0
-10.000403 -5.2548943e-15 0
-10.000403 -1.5863259e-14 0
-10.000403 -4.3304919e-11 0
-10.000403 -1.7420783e-08 0
-10.000403 -9.2047411e-07 0
-10.000381 -7.1103765e-06 0
-10.000014 -1.3045956e-05 0
-10.000002 1.2276703e-05 0
-10.000001 -0.0088086736 0
-10 0.0088084245 0
-10 -1.2882027e-05 0
-10.000001 -2.8083089e-07 0
-10.000002 3.1250153e-07 0
-10.000002 5.6662256e-09 0
-10.000002 9.2749123e-12 0
-10.000002 4.7270341e-15 0
-10.000002 -2.496816e-15 0
-10.000002 5.8717174e-15 0
-10.000002 -5.0544688e-15 0
-10.000002 -8.546748e-17 0
-10.000002 4.8951909e-15 0
-10.000002 -5.0269099e-15 0
-10.000002 -2.1056038e-16 0
-10.000002 1.0176384e-16 0
-10.000002 5.226582e-15 0
-10.000002 -5.2338663e-15 0
-10.000002 -1.939059e-17 0
-10.000002 -4.6458402e-15 0
-10.000002 -9.627733e-12 0
-10.000002 -5.4790758e-09 0
-10.000002 -3.1259211e-07 0
-10.000001 2.8080331e-07 0
-10 1.2882027e-05 0
-10 -0.0088084245 0
-9.9999994 0.0088084341 0
-9.9999994 -1.288267e-05 0
-9.9999994 -5.9813245e-07 0
-9.9999994 5.3335662e-10 0
-9.9999994 8.1224727e-12 0
-9.9999994 -5.0877934e-15 0
-9.9999994 -4.8726647e-17 0
-9.9999994 -2.4974996e-15 0
-9.9999994 5.8717946e-15 0
-9.9999994 -5.0540715e-15 0
-9.9999994 -8.4664883e-17 0
-9.9999994 4.8962905e-15 0
-9.9999994 -5.0248302e-15 0
-9.9999994 -2.1194822e-16 0
-9.9999994 1.0088381e-16 0
-9.9999994 5.225675e-15 0
-9.9999994 -5.2337801e-15 0
-9.9999994 -1.8073591e-17 0
-9.9999994 2.3569986e-16 0
-9.9999994 7.4994113e-15 0
-9.9999994 -8.1216425e-12 0
-9.9999994 -5.3335974e-10 0
-9.9999994 5.9813245e-07 0
-9.9999994 1.288267e-05 0
-9.9999994 -0.0088084341 0
-9.9999929 0.0088103875 0
-9.9999873 -1.2662871e-05 0
-9.9999871 -5.9928761e-07 0
-9.9999871 5.307968e-10 0
-9.9999871 8.1849411e-12 0
-9.9999871 -4.5075855e-15 0
-9.9999871 -4.7943826e-17 0
-9.9999871 -2.4993282e-15 0
-9.9999871 5.8729182e-15 0
-9.9999871 -5.0554358e-15 0
-9.9999871 -8.5665122e-17 0
-9.9999871 4.8956658e-15 0
-9.9999871 -5.028487e-15 0
-9.9999871 -2.0990301e-16 0
-9.9999871 1.019939e-16 0
-9.9999871 5.2277508e-15 0
-9.9999871 -5.2349377e-15 0
-9.9999871 -1.8074108e-17 0
-9.9999871 2.3496071e-16 0
-9.9999871 6.916236e-15 0
-9.9999871 -8.1839724e-12 0
-9.9999871 -5.3079957e-10 0
-9.9999871 5.9928761e-07 0
-9.9999873 1.2662871e-05 0
-9.9999929 -0.0088103875 0
-10.008323 0.0083232745 0
-10.00881 -7.1274208e-06 0
-10.008808 -5.8826521e-07 0
-10.008808 3.9074551e-10 0
-10.008808 8.1181165e-12 0
-10.008808 -3.3500734e-15 0
-10.008808 -4.7799062e-17 0
-10.008808 -2.4401594e-15 0
-10.008808 5.7234801e-15 0
-10.008808 -4.9284891e-15 0
-10.008808 -8.730583e-17 0
-10.008808 4.7663302e-15 0
-10.008808 -4.9094272e-15 0
-10.008808 -1.9955532e-16 0
-10.008808 1.0420588e-16 0
-10.008808 5.0987289e-15 0
-10.008808 -5.1030053e-15 0
-10.008808 -1.8074354e-17 0
-10.008808 2.3056016e-16 0
-10.008808 5.7440788e-15 0
-10.008808 -8.1160771e-12 0
-10.008808 -3.9075165e-10 0
-10.008808 5.8826522e-07 0
-10.00881 7.1274208e-06 0
-10.008323 -0.0083232745 0
-3.5577445 7.474151 0
-5.6880096 -5.2702829 0
-7.4393548 -2.0520299 0
4.9523264 -2.1445751 0
7.4197413 5.4390125 0
10.760907 -5.2097147 0
-10.040503 -0.17453163 0
-9.9962746 -0.47315321 0
9.9969618 -0.15549144 0
10.011273 0.00033375974 0
8.8044085 -4.7749415 0
-8.7207739 -4.9079322 0
-8.9516274 -4.4691572 0
-8.6602549 5.0130429 0
10.011295 -0.0079677913 0
10.011259 0.00019669341 0
9.9945107 0.17157436 0
1.7092569 -3.1265926 0
-10.986968 -4.2685071 0
-2.2597097 -9.1159234 0
-7.2569731 -5.0383927 0
-7.4259246 6.2063012 0
-14.443402 -6.8994303 0
-6.353305 9.3409434 0
-3.5408495 10.212832 0
2.6393648 -13.726701 0
-6.1243282 4.5782471 0
-5.4283244 -9.7962308 0
0.68140701 -8.1180104 0
-11.158282 7.5769566 0
-0.23481136 3.0488039 0
-7.6737472 3.0631346 0
4.0672259 7.9806313 0
-10.008284 0.18738958 0
-10.008969 -0.00025418091 0
-8.8009888 4.7630061 0
9.0883877 4.2832739 0
9.3719163 3.6872893 0
9.0704157 -4.3121752 0
-10.008732 0.0059512252 0
-10.008984 -0.00021798494 0
-10.008114 -0.20564406 0
2.0198051 -14.113628 0
9.8374596 2.0921342 0
3.0458589 -0.42259785 0
10.294967 5.6309722 0
7.7727951 -6.43841 0
-5.4414112 9.7793537 0
-6.1240689 -4.5783082 0
2.6393649 13.726701 0
-0.18718921 -9.3397913 0
-3.5575558 9.7847411 0
0.10159157 5.3652533 0
8.7506225 0.29237137 0
-8.5715094 5.0140424 0
-2.3113425 10.448977 0
3.9191382 7.8148918 0
-4.3628188 -9.969741 0
-9.5062976 0.057979289 0
10.012078 0.0064495344 0
9.2852907 -3.8383828 0
-9.1513817 -3.9549759 0
-9.3629103 -3.4448947 0
-9.1103784 4.0485818 0
10.013185 -0.0052614177 0
10.01173 -0.004972082 0
-10.158148 -0.071985885 0
-4.0716775 10.111487 0
1.4154321 -7.2280704 0
-4.7471346 -11.371515 0
-10.030931 0.27946374 0
-5.5386504 4.4777003 0
0.34967722 5.467429 0
-8.5676818 -5.9574108 0
-0.19634775 9.3320516 0
0.49819454 -3.6819406 0
-6.835513 -10.619282 0