# vtk DataFile Version 4.0
hesp visualization file
ASCII
DATASET UNSTRUCTURED_GRID
POINTS 32 double
4.5355991 1.0773444 4
4.1514326 2.2592521 4
4.1514326 3.3530581 4
4.5355991 4.5349658 4
5.686177 0.3342992 4
5.1956975 1.8627984 4
5.1956975 3.7495119 4
5.686177 5.278011 4
8.0261125 -0.46369395 4
6.4490215 1.0645019 4
6.4490215 4.5478084 4
8.0261125 6.0760042 4
9.6938772 -1.2155154 4
9.8276804 1.707314 4
9.8276804 3.9049962 4
9.6938772 6.8278257 4
11.918433 -1.2155154 4
11.78463 1.707314 4
11.78463 3.9049962 4
11.918433 6.8278257 4
13.586198 -0.46369395 4
15.163289 1.0645019 4
15.163289 4.5478084 4
13.586198 6.0760042 4
15.926133 0.3342992 4
16.416613 1.8627984 4
16.416613 3.7495119 4
15.926133 5.278011 4
17.076711 1.0773444 4
17.460878 2.2592521 4
17.460878 3.3530581 4
17.076711 4.5349658 4
CELLS 0 0
CELL_TYPES 0
POINT_DATA 32
SCALARS m double
LOOKUP_TABLE default
1
1
1
1
1
1
1
1
1
1
1
1
1
1
1
1
1
1
1
1
1
1
1
1
1
1
1
1
1
1
1
1
VECTORS v double
-9.5226126 -0.10083111 0
-12.519655 0.38904071 0
-12.519655 -0.38904071 0
-9.5226126 0.10083111 0
-12.408909 -4.9871418 0
-10.559146 -1.6254411 0
-10.559146 1.6254411 0
-12.408909 4.9871418 0
-6.269084 -8.7229794 0
-8.0398216 -3.1473469 0
-8.0398216 3.1473469 0
-6.269084 8.7229794 0
-3.0431606 -7.7884212 0
-1.4280077 -0.93208426 0
-1.4280077 0.93208426 0
-3.0431606 7.7884212 0
3.0431606 -7.7884212 0
1.4280077 -0.93208426 0
1.4280077 0.93208426 0
3.0431606 7.7884212 0
6.269084 -8.7229794 0
8.0398216 -3.1473469 0
8.0398216 3.1473469 0
6.269084 8.7229794 0
12.408909 -4.9871418 0
10.559146 -1.6254411 0
10.559146 1.6254411 0
12.408909 4.9871418 0
9.5226126 -0.10083111 0
12.519655 0.38904071 0
12.519655 -0.38904071 0
9.5226126 0.10083111 0
