# vtk DataFile Version 4.0
hesp visualization file
ASCII
DATASET UNSTRUCTURED_GRID
POINTS 32 double
-3.9196811 0.077450864 4
-5.4725334 2.2817442 4
-5.4725334 3.330566 4
-3.9196811 5.5348594 4
-4.2892757 -3.3655261 4
-2.5660284 1.6607803 4
-2.5660284 3.95153 4
-4.2892757 8.9778363 4
3.0303826 -7.4454822 4
-0.16895966 -1.4789641 4
-0.16895966 7.0912743 4
3.0303826 13.057792 4
7.2392278 -7.4370396 4
8.7017678 0.97225359 4
8.7017678 4.6400567 4
7.2392278 13.04935 4
14.373082 -7.4370396 4
12.910542 0.97225359 4
12.910542 4.6400567 4
14.373082 13.04935 4
18.581928 -7.4454822 4
21.78127 -1.4789641 4
21.78127 7.0912743 4
18.581928 13.057792 4
25.901586 -3.3655261 4
24.178339 1.6607803 4
24.178339 3.95153 4
25.901586 8.9778363 4
25.531991 0.077450864 4
27.084844 2.2817442 4
27.084844 3.330566 4
25.531991 5.5348594 4
CELLS 0 0
CELL_TYPES 0
POINT_DATA 32
SCALARS m double
LOOKUP_TABLE default
1
1
1
1
1
1
1
1
1
1
1
1
1
1
1
1
1
1
1
1
1
1
1
1
1
1
1
1
1
1
1
1
VECTORS v double
-10.515622 -1.1358742 0
-11.910086 0.22108909 0
-11.910086 -0.22108909 0
-10.515622 1.1358742 0
-12.473199 -4.5527688 0
-9.8328811 -0.2753426 0
-9.8328811 0.2753426 0
-12.473199 4.5527688 0
-6.2396673 -8.7278285 0
-8.3104913 -3.1837227 0
-8.3104913 3.1837227 0
-6.2396673 8.7278285 0
-3.0733755 -7.7754978 0
-1.4032463 -0.91434565 0
-1.4032463 0.91434565 0
-3.0733755 7.7754978 0
3.0733755 -7.7754978 0
1.4032463 -0.91434565 0
1.4032463 0.91434565 0
3.0733755 7.7754978 0
6.2396673 -8.7278285 0
8.3104913 -3.1837227 0
8.3104913 3.1837227 0
6.2396673 8.7278285 0
12.473199 -4.5527688 0
9.8328811 -0.2753426 0
9.8328811 0.2753426 0
12.473199 4.5527688 0
10.515622 -1.1358742 0
11.910086 0.22108909 0
11.910086 -0.22108909 0
10.515622 1.1358742 0
