# vtk DataFile Version 4.0
hesp visualization file
ASCII
DATASET UNSTRUCTURED_GRID
POINTS 32 double
-2.867691 0.19173821 4
-4.2813445 2.2351446 4
-4.2813445 3.3771656 4
-2.867691 5.420572 4
-3.0419497 -2.9102194 4
-1.5833371 1.688127 4
-1.5833371 3.9241832 4
-3.0419497 8.5225296 4
3.6543554 -6.5726991 4
0.66207225 -1.1605821 4
0.66207225 6.7728923 4
3.6543554 12.185009 4
7.5465594 -6.6594897 4
8.842099 1.0637038 4
8.842099 4.5486065 4
7.5465594 12.2718 4
14.065751 -6.6594897 4
12.770211 1.0637038 4
12.770211 4.5486065 4
14.065751 12.2718 4
17.957955 -6.5726991 4
20.950238 -1.1605821 4
20.950238 6.7728923 4
17.957955 12.185009 4
24.65426 -2.9102194 4
23.195647 1.688127 4
23.195647 3.9241832 4
24.65426 8.5225296 4
24.480001 0.19173821 4
25.893655 2.2351446 4
25.893655 3.3771656 4
24.480001 5.420572 4
CELLS 0 0
CELL_TYPES 0
POINT_DATA 32
SCALARS m double
LOOKUP_TABLE default
1
1
1
1
1
1
1
1
1
1
1
1
1
1
1
1
1
1
1
1
1
1
1
1
1
1
1
1
1
1
1
1
VECTORS v double
-10.524707 -1.1508432 0
-11.914026 0.54192764 0
-11.914026 -0.54192764 0
-10.524707 1.1508432 0
-12.473333 -4.5534511 0
-9.8201101 -0.2710581 0
-9.8201101 0.2710581 0
-12.473333 4.5534511 0
-6.2397997 -8.727833 0
-8.3101095 -3.183935 0
-8.3101095 3.183935 0
-6.2397997 8.727833 0
-3.0732431 -7.775501 0
-1.4033899 -0.91467838 0
-1.4033899 0.91467838 0
-3.0732431 7.775501 0
3.0732431 -7.775501 0
1.4033899 -0.91467838 0
1.4033899 0.91467838 0
3.0732431 7.775501 0
6.2397997 -8.727833 0
8.3101095 -3.183935 0
8.3101095 3.183935 0
6.2397997 8.727833 0
12.473333 -4.5534511 0
9.8201101 -0.2710581 0
9.8201101 0.2710581 0
12.473333 4.5534511 0
10.524707 -1.1508432 0
11.914026 0.54192764 0
11.914026 -0.54192764 0
10.524707 1.1508432 0
