# vtk DataFile Version 4.0
hesp visualization file
ASCII
DATASET UNSTRUCTURED_GRID
POINTS 1250 double
30.44521 1.125202 4
30.445219 2.2449807 4
30.44522 3.3673861 4
30.44522 4.4898482 4
30.44522 5.6123102 4
30.44522 6.7347723 4
30.44522 7.8572343 4
30.44522 8.9796964 4
30.44522 10.102158 4
30.44522 11.22462 4
30.44522 12.347083 4
30.44522 13.469545 4
30.44522 14.592007 4
30.44522 15.714469 4
30.44522 16.836931 4
30.44522 17.959393 4
30.44522 19.081855 4
30.44522 20.204317 4
30.44522 21.326779 4
30.44522 22.449241 4
30.44522 23.571703 4
30.44522 24.694165 4
30.44522 25.816627 4
30.445219 26.939033 4
30.44521 28.058811 4
30.881543 1.1136719 4
30.881445 2.2446964 4
30.881445 3.3673862 4
30.881445 4.4898482 4
30.881445 5.6123102 4
30.881445 6.7347723 4
30.881445 7.8572343 4
30.881445 8.9796964 4
30.881445 10.102158 4
30.881445 11.22462 4
30.881445 12.347083 4
30.881445 13.469545 4
30.881445 14.592007 4
30.881445 15.714469 4
30.881445 16.836931 4
30.881445 17.959393 4
30.881445 19.081855 4
30.881445 20.204317 4
30.881445 21.326779 4
30.881445 22.449241 4
30.881445 23.571703 4
30.881445 24.694165 4
30.881445 25.816627 4
30.881445 26.939317 4
30.881543 28.070341 4
31.771731 1.1310253 4
31.771835 2.2451305 4
31.771835 3.3673861 4
31.771835 4.4898482 4
31.771835 5.6123102 4
31.771835 6.7347723 4
31.771835 7.8572343 4
31.771835 8.9796964 4
31.771835 10.102158 4
31.771835 11.22462 4
31.771835 12.347083 4
31.771835 13.469545 4
31.771835 14.592007 4
31.771835 15.714469 4
31.771835 16.836931 4
31.771835 17.959393 4
31.771835 19.081855 4
31.771835 20.204317 4
31.771835 21.326779 4
31.771835 22.449241 4
31.771835 23.571703 4
31.771835 24.694165 4
31.771835 25.816627 4
31.771835 26.938883 4
31.771731 28.052988 4
32.2081 1.1205283 4
32.208093 2.2448652 4
32.208093 3.3673862 4
32.208093 4.4898482 4
32.208093 5.6123102 4
32.208093 6.7347723 4
32.208093 7.8572343 4
32.208093 8.9796964 4
32.208093 10.102158 4
32.208093 11.22462 4
32.208093 12.347083 4
32.208093 13.469545 4
32.208093 14.592007 4
32.208093 15.714469 4
32.208093 16.836931 4
32.208093 17.959393 4
32.208093 19.081855 4
32.208093 20.204317 4
32.208093 21.326779 4
32.208093 22.449241 4
32.208093 23.571703 4
32.208093 24.694165 4
32.208093 25.816627 4
32.208093 26.939148 4
32.2081 28.063485 4
33.098111 1.1244873 4
33.098112 2.2449677 4
33.098112 3.3673861 4
33.098112 4.4898482 4
33.098112 5.6123102 4
33.098112 6.7347723 4
33.098112 7.8572343 4
33.098112 8.9796964 4
33.098112 10.102158 4
33.098112 11.22462 4
33.098112 12.347083 4
33.098112 13.469545 4
33.098112 14.592007 4
33.098112 15.714469 4
33.098112 16.836931 4
33.098112 17.959393 4
33.098112 19.081855 4
33.098112 20.204317 4
33.098112 21.326779 4
33.098112 22.449241 4
33.098112 23.571703 4
33.098112 24.694165 4
33.098112 25.816627 4
33.098112 26.939046 4
33.098111 28.059526 4
33.53469 1.1229149 4
33.534689 2.244927 4
33.534689 3.3673861 4
33.534689 4.4898482 4
33.534689 5.6123102 4
33.534689 6.7347723 4
33.534689 7.8572343 4
33.534689 8.9796964 4
33.534689 10.102158 4
33.534689 11.22462 4
33.534689 12.347083 4
33.534689 13.469545 4
33.534689 14.592007 4
33.534689 15.714469 4
33.534689 16.836931 4
33.534689 17.959393 4
33.534689 19.081855 4
33.534689 20.204317 4
33.534689 21.326779 4
33.534689 22.449241 4
33.534689 23.571703 4
33.534689 24.694165 4
33.534689 25.816627 4
33.534689 26.939086 4
33.53469 28.061098 4
34.657234 1.122914 4
34.657234 2.244927 4
34.657234 3.3673861 4
34.657234 4.4898482 4
34.657234 5.6123102 4
34.657234 6.7347723 4
34.657234 7.8572343 4
34.657234 8.9796964 4
34.657234 10.102158 4
34.657234 11.22462 4
34.657234 12.347083 4
34.657234 13.469545 4
34.657234 14.592007 4
34.657234 15.714469 4
34.657234 16.836931 4
34.657234 17.959393 4
34.657234 19.081855 4
34.657234 20.204317 4
34.657234 21.326779 4
34.657234 22.449241 4
34.657234 23.571703 4
34.657234 24.694165 4
34.657234 25.816627 4
34.657234 26.939086 4
34.657234 28.061099 4
35.779696 1.122914 4
35.779696 2.244927 4
35.779696 3.3673861 4
35.779696 4.4898482 4
35.779696 5.6123102 4
35.779696 6.7347723 4
35.779696 7.8572343 4
35.779696 8.9796964 4
35.779696 10.102158 4
35.779696 11.22462 4
35.779696 12.347083 4
35.779696 13.469545 4
35.779696 14.592007 4
35.779696 15.714469 4
35.779696 16.836931 4
35.779696 17.959393 4
35.779696 19.081855 4
35.779696 20.204317 4
35.779696 21.326779 4
35.779696 22.449241 4
35.779696 23.571703 4
35.779696 24.694165 4
35.779696 25.816627 4
35.779696 26.939086 4
35.779696 28.061099 4
36.902158 1.122914 4
36.902158 2.244927 4
36.902158 3.3673861 4
36.902158 4.4898482 4
36.902158 5.6123102 4
36.902158 6.7347723 4
36.902158 7.8572343 4
36.902158 8.9796964 4
36.902158 10.102158 4
36.902158 11.22462 4
36.902158 12.347083 4
36.902158 13.469545 4
36.902158 14.592007 4
36.902158 15.714469 4
36.902158 16.836931 4
36.902158 17.959393 4
36.902158 19.081855 4
36.902158 20.204317 4
36.902158 21.326779 4
36.902158 22.449241 4
36.902158 23.571703 4
36.902158 24.694165 4
36.902158 25.816627 4
36.902158 26.939086 4
36.902158 28.061099 4
38.02462 1.122914 4
38.02462 2.244927 4
38.02462 3.3673861 4
38.02462 4.4898482 4
38.02462 5.6123102 4
38.02462 6.7347723 4
38.02462 7.8572343 4
38.02462 8.9796964 4
38.02462 10.102158 4
38.02462 11.22462 4
38.02462 12.347083 4
38.02462 13.469545 4
38.02462 14.592007 4
38.02462 15.714469 4
38.02462 16.836931 4
38.02462 17.959393 4
38.02462 19.081855 4
38.02462 20.204317 4
38.02462 21.326779 4
38.02462 22.449241 4
38.02462 23.571703 4
38.02462 24.694165 4
38.02462 25.816627 4
38.02462 26.939086 4
38.02462 28.061099 4
39.147083 1.122914 4
39.147083 2.244927 4
39.147083 3.3673861 4
39.147083 4.4898482 4
39.147083 5.6123102 4
39.147083 6.7347723 4
39.147083 7.8572343 4
39.147083 8.9796964 4
39.147083 10.102158 4
39.147083 11.22462 4
39.147083 12.347083 4
39.147083 13.469545 4
39.147083 14.592007 4
39.147083 15.714469 4
39.147083 16.836931 4
39.147083 17.959393 4
39.147083 19.081855 4
39.147083 20.204317 4
39.147083 21.326779 4
39.147083 22.449241 4
39.147083 23.571703 4
39.147083 24.694165 4
39.147083 25.816627 4
39.147083 26.939086 4
39.147083 28.061099 4
40.269545 1.122914 4
40.269545 2.244927 4
40.269545 3.3673861 4
40.269545 4.4898482 4
40.269545 5.6123102 4
40.269545 6.7347723 4
40.269545 7.8572343 4
40.269545 8.9796964 4
40.269545 10.102158 4
40.269545 11.22462 4
40.269545 12.347083 4
40.269545 13.469545 4
40.269545 14.592007 4
40.269545 15.714469 4
40.269545 16.836931 4
40.269545 17.959393 4
40.269545 19.081855 4
40.269545 20.204317 4
40.269545 21.326779 4
40.269545 22.449241 4
40.269545 23.571703 4
40.269545 24.694165 4
40.269545 25.816627 4
40.269545 26.939086 4
40.269545 28.061099 4
41.392007 1.122914 4
41.392007 2.244927 4
41.392007 3.3673861 4
41.392007 4.4898482 4
41.392007 5.6123102 4
41.392007 6.7347723 4
41.392007 7.8572343 4
41.392007 8.9796964 4
41.392007 10.102158 4
41.392007 11.22462 4
41.392007 12.347083 4
41.392007 13.469545 4
41.392007 14.592007 4
41.392007 15.714469 4
41.392007 16.836931 4
41.392007 17.959393 4
41.392007 19.081855 4
41.392007 20.204317 4
41.392007 21.326779 4
41.392007 22.449241 4
41.392007 23.571703 4
41.392007 24.694165 4
41.392007 25.816627 4
41.392007 26.939086 4
41.392007 28.061099 4
42.514469 1.122914 4
42.514469 2.244927 4
42.514469 3.3673861 4
42.514469 4.4898482 4
42.514469 5.6123102 4
42.514469 6.7347723 4
42.514469 7.8572343 4
42.514469 8.9796964 4
42.514469 10.102158 4
42.514469 11.22462 4
42.514469 12.347083 4
42.514469 13.469545 4
42.514469 14.592007 4
42.514469 15.714469 4
42.514469 16.836931 4
42.514469 17.959393 4
42.514469 19.081855 4
42.514469 20.204317 4
42.514469 21.326779 4
42.514469 22.449241 4
42.514469 23.571703 4
42.514469 24.694165 4
42.514469 25.816627 4
42.514469 26.939086 4
42.514469 28.061099 4
43.636931 1.122914 4
43.636931 2.244927 4
43.636931 3.3673861 4
43.636931 4.4898482 4
43.636931 5.6123102 4
43.636931 6.7347723 4
43.636931 7.8572343 4
43.636931 8.9796964 4
43.636931 10.102158 4
43.636931 11.22462 4
43.636931 12.347083 4
43.636931 13.469545 4
43.636931 14.592007 4
43.636931 15.714469 4
43.636931 16.836931 4
43.636931 17.959393 4
43.636931 19.081855 4
43.636931 20.204317 4
43.636931 21.326779 4
43.636931 22.449241 4
43.636931 23.571703 4
43.636931 24.694165 4
43.636931 25.816627 4
43.636931 26.939086 4
43.636931 28.061099 4
44.759393 1.122914 4
44.759393 2.244927 4
44.759393 3.3673861 4
44.759393 4.4898482 4
44.759393 5.6123102 4
44.759393 6.7347723 4
44.759393 7.8572343 4
44.759393 8.9796964 4
44.759393 10.102158 4
44.759393 11.22462 4
44.759393 12.347083 4
44.759393 13.469545 4
44.759393 14.592007 4
44.759393 15.714469 4
44.759393 16.836931 4
44.759393 17.959393 4
44.759393 19.081855 4
44.759393 20.204317 4
44.759393 21.326779 4
44.759393 22.449241 4
44.759393 23.571703 4
44.759393 24.694165 4
44.759393 25.816627 4
44.759393 26.939086 4
44.759393 28.061099 4
45.881855 1.122914 4
45.881855 2.244927 4
45.881855 3.3673861 4
45.881855 4.4898482 4
45.881855 5.6123102 4
45.881855 6.7347723 4
45.881855 7.8572343 4
45.881855 8.9796964 4
45.881855 10.102158 4
45.881855 11.22462 4
45.881855 12.347083 4
45.881855 13.469545 4
45.881855 14.592007 4
45.881855 15.714469 4
45.881855 16.836931 4
45.881855 17.959393 4
45.881855 19.081855 4
45.881855 20.204317 4
45.881855 21.326779 4
45.881855 22.449241 4
45.881855 23.571703 4
45.881855 24.694165 4
45.881855 25.816627 4
45.881855 26.939086 4
45.881855 28.061099 4
47.004317 1.122914 4
47.004317 2.244927 4
47.004317 3.3673861 4
47.004317 4.4898482 4
47.004317 5.6123102 4
47.004317 6.7347723 4
47.004317 7.8572343 4
47.004317 8.9796964 4
47.004317 10.102158 4
47.004317 11.22462 4
47.004317 12.347083 4
47.004317 13.469545 4
47.004317 14.592007 4
47.004317 15.714469 4
47.004317 16.836931 4
47.004317 17.959393 4
47.004317 19.081855 4
47.004317 20.204317 4
47.004317 21.326779 4
47.004317 22.449241 4
47.004317 23.571703 4
47.004317 24.694165 4
47.004317 25.816627 4
47.004317 26.939086 4
47.004317 28.061099 4
48.126779 1.122914 4
48.126779 2.244927 4
48.126779 3.3673861 4
48.126779 4.4898482 4
[...]
POINT_DATA 1250
SCALARS m double
LOOKUP_TABLE default
1
1
1
1
1
1
1
1
1
1
1
1
1
1
1
1
1
1
1
1
1
1
1
1
1
1
1
1
1
1
1
1
1
1
1
1
1
1
1
1
1
1
1
1
1
1
1
1
1
1
1
1
1
1
1
1
1
1
1
1
1
1
1
1
1
1
1
1
1
1
1
1
1
1
1
1
1
1
1
1
1
1
1
1
1
1
1
1
1
1
1
1
1
1
1
1
1
1
1
1
1
1
1
1
1
1
1
1
1
1
1
1
1
1
1
1
1
1
1
1
1
1
1
1
1
1
1
1
1
1
1
1
1
1
1
1
1
1
1
1
1
1
1
1
1
1
1
1
1
1
1
1
1
1
1
1
1
1
1
1
1
1
1
1
1
1
1
1
1
1
1
1
1
1
1
1
1
1
1
1
1
1
1
1
1
1
1
1
1
1
1
1
1
1
1
1
1
1
1
1
1
1
1
1
1
1
1
1
1
1
1
1
1
1
1
1
1
1
1
1
1
1
1
1
1
1
1
1
1
1
1
1
1
1
1
1
1
1
1
1
1
1
1
1
1
1
1
1
1
1
1
1
1
1
1
1
1
1
1
1
1
1
1
1
1
1
1
1
1
1
1
1
1
1
1
1
1
1
1
1
1
1
1
1
1
1
1
1
1
1
1
1
1
1
1
1
1
1
1
1
1
1
1
1
1
1
1
1
1
1
1
1
1
1
1
1
1
1
1
1
1
1
1
1
1
1
1
1
1
1
1
1
1
1
1
1
1
1
1
1
1
1
1
1
1
1
1
1
1
1
1
1
1
1
1
1
1
1
1
1
1
1
1
1
1
1
1
1
1
1
1
1
1
1
1
1
1
1
1
1
1
1
1
1
1
1
1
1
1
1
1
1
1
1
1
1
1
1
1
1
1
1
1
1
1
1
1
1
1
1
1
1
1
1
1
1
1
1
1
1
1
1
1
1
1
1
1
1
1
1
1
1
1
1
1
1
1
1
1
1
1
1
1
1
1
1
1
1
1
1
1
1
1
1
1
1
1
1
1
1
1
1
1
1
1
1
1
1
1
1
1
1
1
1
1
1
1
1
1
1
1
1
1
1
1
1
1
1
1
1
1
1
1
1
1
1
1
1
1
1
1
1
1
1
1
1
1
1
1
1
1
1
1
1
1
1
1
1
1
1
1
1
1
1
1
1
1
1
1
1
1
1
1
1
1
1
1
1
1
1
1
1
1
1
1
1
1
1
1
1
1
1
1
1
1
1
1
1
1
1
1
1
1
1
1
1
1
1
1
1
1
1
1
1
1
1
1
1
1
1
1
1
1
1
1
1
1
1
1
1
1
1
1
1
1
1
1
1
1
1
1
1
1
1
1
1
1
1
1
1
1
1
1
1
1
1
1
1
1
1
1
1
1
1
1
1
1
1
1
1
1
1
1
1
1
1
1
1
1
1
1
1
1
1
1
1
1
1
1
1
1
1
1
1
1
1
1
1
1
1
1
1
1
1
1
1
1
1
1
1
1
1
1
1
1
1
1
1
1
1
1
1
1
1
1
1
1
1
1
1
1
1
1
1
1
1
1
1
1
1
1
1
1
1
1
1
1
1
1
1
1
1
1
1
1
1
1
1
1
1
1
1
1
1
1
1
1
1
1
1
1
1
1
1
1
1
1
1
1
1
1
1
1
1
1
1
1
1
1
1
1
1
1
1
1
1
1
1
1
1
1
1
1
1
1
1
1
1
1
1
1
1
1
1
1
1
1
1
1
1
1
1
1
1
1
1
1
1
1
1
1
1
1
1
1
1
1
1
1
1
1
1
1
1
1
1
1
1
1
1
1
1
1
1
1
1
1
1
1
1
1
1
1
1
1
1
1
1
1
1
1
1
1
1
1
1
1
1
1
1
1
1
1
1
1
1
1
1
1
1
1
1
1
1
1
1
1
1
1
1
1
1
1
1
1
1
1
1
1
1
1
1
1
1
1
1
1
1
1
1
1
1
1
1
1
1
1
1
1
1
1
1
1
1
1
1
1
1
1
1
1
1
1
1
1
1
1
1
1
1
1
1
1
1
1
1
1
1
1
1
1
1
1
1
1
1
1
1
1
1
1
1
1
1
1
1
1
1
1
1
1
1
1
1
1
1
1
1
1
1
1
1
1
1
1
1
1
1
1
1
1
1
1
1
1
1
1
1
1
1
1
1
1
1
1
1
1
1
1
1
1
1
1
1
1
1
1
1
1
1
1
1
1
1
1
1
1
1
1
1
1
1
1
1
1
1
1
1
1
1
1
1
1
1
1
1
1
1
1
1
1
1
1
1
1
1
1
1
1
1
1
1
1
1
1
1
1
1
1
1
1
1
1
1
1
1
1
1
1
1
1
1
1
1
1
1
1
1
1
1
1
1
1
1
1
1
1
1
1
1
1
1
1
1
1
1
1
1
1
1
1
1
1
1
1
1
1
1
1
1
1
1
1
1
1
1
1
1
1
1
1
1
1
1
1
1
1
1
1
1
1
1
1
1
1
1
1
1
1
1
1
1
1
1
1
1
1
1
1
1
1
1
1
1
1
1
1
1
1
1
1
1
1
1
1
1
1
1
1
1
1
1
1
1
1
1
1
1
1
1
1
1
1
1
1
1
1
1
1
1
1
1
1
1
1
1
1
1
1
1
1
1
1
1
1
1
1
1
1
1
1
1
1
1
1
1
1
1
1
1
1
1
1
1
1
1
1
1
1
1
1
1
1
1
1
1
1
1
1
1
1
1
1
1
1
1
1
1
1
1
1
1
1
1
1
1
1
1
1
1
1
1
1
1
1
1
1
1
1
1
VECTORS v double
10.022095 0.029619756 0
10.022228 0.00064655792 0
10.02223 -2.8496016e-07 0
10.02223 -7.8872242e-10 0
10.02223 -2.578953e-10 0
10.02223 2.1341086e-13 0
10.02223 -1.0344396e-13 0
10.02223 -4.1486483e-13 0
10.02223 2.6455965e-15 0
10.02223 -2.0915316e-13 0
10.02223 -4.1378137e-13 0
10.02223 -6.1844753e-13 0
10.02223 6.8403778e-12 0
10.02223 6.2048525e-13 0
10.02223 4.1379202e-13 0
10.02223 4.161034e-13 0
10.02223 -2.3539449e-15 0
10.02223 -1.1691508e-17 0
10.02223 8.9579491e-17 0
10.02223 -4.1209655e-13 0
10.02223 -7.3983596e-13 0
10.02223 7.8511508e-10 0
10.02223 2.851356e-07 0
10.022228 -0.00064655771 0
10.022095 -0.029619756 0
-10.018802 -0.22685239 0
-10.021375 -0.0057159033 0
-10.021378 1.4670386e-06 0
-10.021378 4.4058213e-09 0
-10.021378 8.5905814e-11 0
-10.021378 1.2761454e-13 0
-10.021378 -6.4640898e-14 0
-10.021378 -2.5965785e-13 0
-10.021378 2.5096587e-15 0
-10.021378 -1.3146023e-13 0
-10.021378 -2.586305e-13 0
-10.021378 -3.8583961e-13 0
-10.021378 -5.1173386e-13 0
-10.021378 3.8775507e-13 0
-10.021378 2.586381e-13 0
-10.021378 2.6083154e-13 0
-10.021378 -2.2332629e-15 0
-10.021378 -1.0711707e-17 0
-10.021378 8.5121745e-17 0
-10.021378 -2.5653073e-13 0
-10.021378 -1.7147539e-13 0
-10.021378 -4.4227958e-09 0
-10.021378 -1.4683357e-06 0
-10.021375 0.005715902 0
-10.018802 0.22685239 0
10.019943 0.21906661 0
10.022546 0.0054289876 0
10.022547 -1.3906182e-06 0
10.022547 -3.9498543e-09 0
10.022547 -7.0016384e-11 0
10.022547 1.5252046e-13 0
10.022547 -7.5915069e-14 0
10.022547 -3.0462725e-13 0
10.022547 2.3636911e-15 0
10.022547 -1.5384804e-13 0
10.022547 -3.0365798e-13 0
10.022547 -4.534658e-13 0
10.022547 -6.0926612e-13 0
10.022547 4.5534758e-13 0
10.022547 3.0366567e-13 0
10.022547 3.0573009e-13 0
10.022547 -2.1046487e-15 0
10.022547 -9.5670096e-18 0
10.022547 8.1345014e-17 0
10.022547 -3.0174291e-13 0
10.022547 -4.56243e-13 0
10.022547 3.9678896e-09 0
10.022547 1.3918449e-06 0
10.022546 -0.0054289864 0
10.019943 -0.21906661 0
-10.020002 -0.052776325 0
-10.020225 -0.0014260036 0
-10.020225 1.8190069e-07 0
-10.020225 2.4323716e-10 0
-10.020225 4.6852815e-13 0
-10.020225 1.2889655e-13 0
-10.020225 -6.4042719e-14 0
-10.020225 -2.571154e-13 0
-10.020225 2.2169284e-15 0
-10.020225 -1.2999703e-13 0
-10.020225 -2.5620628e-13 0
-10.020225 -3.8241203e-13 0
-10.020225 -5.1424536e-13 0
-10.020225 3.8417919e-13 0
-10.020225 2.5621324e-13 0
-10.020225 2.5814943e-13 0
-10.020225 -1.9741411e-15 0
-10.020225 -8.4199215e-18 0
-10.020225 7.5662338e-17 0
-10.020225 -2.5471724e-13 0
-10.020225 -4.2053753e-13 0
-10.020225 -2.5306673e-10 0
-10.020225 -1.822402e-07 0
-10.020225 0.0014260033 0
-10.020002 0.052776326 0
10.020878 0.048920186 0
10.020975 0.0012073076 0
10.020976 -2.3390936e-07 0
10.020976 -5.1316028e-10 0
10.020976 6.8054721e-14 0
10.020976 3.7090144e-15 0
10.020976 -1.8256478e-15 0
10.020976 -8.1689277e-15 0
10.020976 2.0706288e-15 0
10.020976 -5.4282084e-15 0
10.020976 -7.3192828e-15 0
10.020976 -9.2064198e-15 0
10.020976 -1.6349801e-14 0
10.020976 1.0857081e-14 0
10.020976 7.3255035e-15 0
10.020976 9.1334214e-15 0
10.020976 -1.8448527e-15 0
10.020976 -7.271674e-18 0
10.020976 7.088966e-17 0
10.020976 -5.6280953e-15 0
10.020976 -6.5754844e-14 0
10.020976 5.2123749e-10 0
10.020976 2.3418765e-07 0
10.020975 -0.0012073073 0
10.020878 -0.048920186 0
-10.018722 0.0029393951 0
-10.01876 1.927299e-05 0
-10.01876 -3.8976126e-08 0
-10.01876 -1.4790541e-10 0
-10.01876 6.4735729e-14 0
-10.01876 6.7135566e-17 0
-10.01876 1.0192345e-17 0
-10.01876 -7.6876974e-16 0
-10.01876 1.9289283e-15 0
-10.01876 -1.6347023e-15 0
-10.01876 2.3513813e-17 0
-10.01876 1.685791e-15 0
-10.01876 -1.5474745e-15 0
-10.01876 -1.4723434e-16 0
-10.01876 -1.8121348e-17 0
-10.01876 1.6654949e-15 0
-10.01876 -1.7189678e-15 0
-10.01876 -6.2242113e-18 0
-10.01876 6.6529783e-17 0
-10.01876 1.5523387e-15 0
-10.01876 -6.6020583e-14 0
-10.01876 1.4791252e-10 0
-10.01876 3.8976434e-08 0
-10.01876 -1.927299e-05 0
-10.018722 -0.0029393951 0
-10.00001 0.0028272502 0
-10.000013 1.7046889e-05 0
-10.000013 -2.5591255e-08 0
-10.000013 -5.4012758e-11 0
-10.000013 4.066261e-14 0
-10.000013 4.4978088e-17 0
-10.000013 -2.423263e-18 0
-10.000013 -8.0735441e-16 0
-10.000013 1.8981798e-15 0
-10.000013 -1.6339195e-15 0
-10.000013 -2.745309e-17 0
-10.000013 1.5826479e-15 0
-10.000013 -1.6245978e-15 0
-10.000013 -6.8173805e-17 0
-10.000013 3.2773714e-17 0
-10.000013 1.6894165e-15 0
-10.000013 -1.6917298e-15 0
-10.000013 -5.8389041e-18 0
-10.000013 6.5506906e-17 0
-10.000013 1.5227467e-15 0
-10.000013 -4.1824059e-14 0
-10.000013 5.4012287e-11 0
-10.000013 2.5591255e-08 0
-10.000013 -1.7046889e-05 0
-10.00001 -0.0028272502 0
-10 0.0028257867 0
-10 1.7049418e-05 0
-10 -2.5537114e-08 0
-10 -5.4025968e-11 0
-10 4.0621457e-14 0
-10 4.4866756e-17 0
-10 -2.4110593e-18 0
-10 -8.071211e-16 0
-10 1.8979535e-15 0
-10 -1.6337281e-15 0
-10 -2.7263618e-17 0
-10 1.5827028e-15 0
-10 -1.6242431e-15 0
-10 -6.8379916e-17 0
-10 3.246501e-17 0
-10 1.6891372e-15 0
-10 -1.6914946e-15 0
-10 -5.8384246e-18 0
-10 6.5420811e-17 0
-10 1.5227666e-15 0
-10 -4.1782341e-14 0
-10 5.402551e-11 0
-10 2.5537113e-08 0
-10 -1.7049418e-05 0
-10 -0.0028257867 0
-10 0.0028257867 0
-10 1.7049418e-05 0
-10 -2.5537115e-08 0
-10 -5.4025984e-11 0
-10 4.0621481e-14 0
-10 4.4827593e-17 0
-10 -2.3490843e-18 0
-10 -8.0725159e-16 0
-10 1.8978566e-15 0
-10 -1.6335747e-15 0
-10 -2.7320597e-17 0
-10 1.5825003e-15 0
-10 -1.6239337e-15 0
-10 -6.8490739e-17 0
-10 3.2411864e-17 0
-10 1.689082e-15 0
-10 -1.6913881e-15 0
-10 -5.8397117e-18 0
-10 6.5371512e-17 0
-10 1.5228275e-15 0
-10 -4.178234e-14 0
-10 5.4025526e-11 0
-10 2.5537114e-08 0
-10 -1.7049418e-05 0
-10 -0.0028257867 0
-10 0.0028257867 0
-10 1.7049418e-05 0
-10 -2.5537115e-08 0
-10 -5.4025983e-11 0
-10 4.0621405e-14 0
-10 4.4841553e-17 0
-10 -2.4165154e-18 0
-10 -8.0750969e-16 0
-10 1.8979559e-15 0
-10 -1.633336e-15 0
-10 -2.7368503e-17 0
-10 1.5824449e-15 0
-10 -1.6240205e-15 0
-10 -6.8333363e-17 0
-10 3.2441436e-17 0
-10 1.6891545e-15 0
-10 -1.691443e-15 0
-10 -5.8382316e-18 0
-10 6.5355786e-17 0
-10 1.5228187e-15 0
-10 -4.1782237e-14 0
-10 5.4025526e-11 0
-10 2.5537114e-08 0
-10 -1.7049418e-05 0
-10 -0.0028257867 0
-10 0.0028257867 0
-10 1.7049418e-05 0
-10 -2.5537115e-08 0
-10 -5.4025983e-11 0
-10 4.0621412e-14 0
-10 4.4915326e-17 0
-10 -2.4023075e-18 0
-10 -8.0710995e-16 0
-10 1.8977906e-15 0
-10 -1.6338e-15 0
-10 -2.7497589e-17 0
-10 1.5825229e-15 0
-10 -1.6241259e-15 0
-10 -6.8400228e-17 0
-10 3.2627435e-17 0
-10 1.6891475e-15 0
-10 -1.6914509e-15 0
-10 -5.8461508e-18 0
-10 6.5390085e-17 0
-10 1.5227906e-15 0
-10 -4.1782369e-14 0
-10 5.4025526e-11 0
-10 2.5537114e-08 0
-10 -1.7049418e-05 0
-10 -0.0028257867 0
-10 0.0028257867 0
-10 1.7049418e-05 0
-10 -2.5537115e-08 0
-10 -5.4025983e-11 0
-10 4.0621487e-14 0
-10 4.4912595e-17 0
-10 -2.3594926e-18 0
-10 -8.073123e-16 0
-10 1.8978601e-15 0
-10 -1.6336111e-15 0
-10 -2.7389986e-17 0
-10 1.5824092e-15 0
-10 -1.6239527e-15 0
-10 -6.8379717e-17 0
-10 3.2744063e-17 0
-10 1.6891427e-15 0
-10 -1.6913881e-15 0
-10 -5.8397117e-18 0
-10 6.536891e-17 0
-10 1.5227796e-15 0
-10 -4.1782392e-14 0
-10 5.4025526e-11 0
-10 2.5537114e-08 0
-10 -1.7049418e-05 0
-10 -0.0028257867 0
-10 0.0028257867 0
-10 1.7049418e-05 0
-10 -2.5537115e-08 0
-10 -5.4025983e-11 0
-10 4.0621481e-14 0
-10 4.4834614e-17 0
-10 -2.4165154e-18 0
-10 -8.0750969e-16 0
-10 1.8979559e-15 0
-10 -1.633336e-15 0
-10 -2.7368503e-17 0
-10 1.5824449e-15 0
-10 -1.624154e-15 0
-10 -6.8333363e-17 0
-10 3.2441436e-17 0
-10 1.6891545e-15 0
-10 -1.691443e-15 0
-10 -5.8382316e-18 0
-10 6.5355786e-17 0
-10 1.5228185e-15 0
-10 -4.1782597e-14 0
-10 5.4025526e-11 0
-10 2.5537114e-08 0
-10 -1.7049418e-05 0
-10 -0.0028257867 0
-10 0.0028257867 0
-10 1.7049418e-05 0
-10 -2.5537115e-08 0
-10 -5.4025983e-11 0
-10 4.0621532e-14 0
-10 4.4839818e-17 0
-10 -2.4165154e-18 0
-10 -8.0709336e-16 0
-10 1.8979559e-15 0
-10 -1.6337523e-15 0
-10 -2.7368503e-17 0
-10 1.5825836e-15 0
-10 -1.624154e-15 0
-10 -6.8333363e-17 0
-10 3.2441436e-17 0
-10 1.6891545e-15 0
-10 -1.691443e-15 0
-10 -5.8382316e-18 0
-10 6.5355786e-17 0
-10 1.5228188e-15 0
-10 -4.1782483e-14 0
-10 5.4025526e-11 0
-10 2.5537114e-08 0
-10 -1.7049418e-05 0
-10 -0.0028257867 0
-10 0.0028257867 0
-10 1.7049418e-05 0
-10 -2.5537115e-08 0
-10 -5.4025983e-11 0
-10 4.0621528e-14 0
-10 4.4918795e-17 0
-10 -2.4023075e-18 0
-10 -8.0710995e-16 0
-10 1.8977906e-15 0
-10 -1.6338e-15 0
-10 -2.7497589e-17 0
-10 1.5825229e-15 0
-10 -1.6242647e-15 0
-10 -6.8400228e-17 0
-10 3.2627435e-17 0
-10 1.6891475e-15 0
-10 -1.6914509e-15 0
-10 -5.8461508e-18 0
-10 6.5390085e-17 0
-10 1.5227906e-15 0
-10 -4.1782422e-14 0
-10 5.4025526e-11 0
-10 2.5537114e-08 0
-10 -1.7049418e-05 0
-10 -0.0028257867 0
-10 0.0028257867 0
-10 1.7049418e-05 0
-10 -2.5537115e-08 0
-10 -5.4025983e-11 0
-10 4.0621487e-14 0
-10 4.4905656e-17 0
-10 -2.3594926e-18 0
-10 -8.073123e-16 0
-10 1.8978601e-15 0
-10 -1.6336111e-15 0
-10 -2.7389986e-17 0
-10 1.5824092e-15 0
-10 -1.6239527e-15 0
-10 -6.8379717e-17 0
-10 3.2744063e-17 0
-10 1.6891427e-15 0
-10 -1.6913881e-15 0
-10 -5.8397117e-18 0
-10 6.536891e-17 0
-10 1.5227798e-15 0
-10 -4.1782487e-14 0
-10 5.4025526e-11 0
-10 2.5537114e-08 0
-10 -1.7049418e-05 0
-10 -0.0028257867 0
-10 0.0028257867 0
-10 1.7049418e-05 0
-10 -2.5537115e-08 0
-10 -5.4025983e-11 0
-10 4.0621396e-14 0
-10 4.4841553e-17 0
-10 -2.4165154e-18 0
-10 -8.0750969e-16 0
-10 1.8979559e-15 0
-10 -1.633336e-15 0
-10 -2.7368503e-17 0
-10 1.5824449e-15 0
-10 -1.624154e-15 0
-10 -6.8333363e-17 0
-10 3.2441436e-17 0
-10 1.6891545e-15 0
-10 -1.691443e-15 0
-10 -5.8382316e-18 0
-10 6.5355786e-17 0
-10 1.5228187e-15 0
-10 -4.1782288e-14 0
-10 5.4025526e-11 0
-10 2.5537114e-08 0
-10 -1.7049418e-05 0
-10 -0.0028257867 0
-10 0.0028257867 0
-10 1.7049418e-05 0
-10 -2.5537115e-08 0
-10 -5.4025983e-11 0
-10 4.0621481e-14 0
-10 4.4850226e-17 0
-10 -2.4165154e-18 0
-10 -8.0709336e-16 0
-10 1.8979559e-15 0
-10 -1.6337523e-15 0
-10 -2.7368503e-17 0
-10 1.5825836e-15 0
-10 -1.624154e-15 0
-10 -6.8333363e-17 0
-10 3.2441436e-17 0
-10 1.6891545e-15 0
-10 -1.691443e-15 0
-10 -5.8382316e-18 0
-10 6.5355786e-17 0
-10 1.5228186e-15 0
-10 -4.1782324e-14 0
-10 5.4025526e-11 0
-10 2.5537114e-08 0
-10 -1.7049418e-05 0
-10 -0.0028257867 0
-10 0.0028257867 0
-10 1.7049418e-05 0
-10 -2.5537115e-08 0
-10 -5.4025983e-11 0
-10 4.0621483e-14 0
-10 4.4846757e-17 0
-10 -2.4165154e-18 0
-10 -8.0709336e-16 0
-10 1.8979559e-15 0
-10 -1.6337523e-15 0
-10 -2.7368503e-17 0
-10 1.5825836e-15 0
-10 -1.6242928e-15 0
-10 -6.8333363e-17 0
-10 3.2441436e-17 0
-10 1.6891545e-15 0
-10 -1.691443e-15 0
-10 -5.8382316e-18 0
-10 6.5355786e-17 0
-10 1.5228187e-15 0
-10 -4.1782324e-14 0
-10 5.4025526e-11 0
-10 2.5537114e-08 0
-10 -1.7049418e-05 0
-10 -0.0028257867 0
-10 0.0028257867 0
-10 1.7049418e-05 0
-10 -2.5537115e-08 0
-10 -5.4025983e-11 0
-10 4.0621343e-14 0
-10 4.4954754e-17 0
-10 -2.3675804e-18 0
-10 -8.0729222e-16 0
-10 1.8979275e-15 0
-10 -1.6337368e-15 0
-10 -2.7481334e-17 0
-10 1.582488e-15 0
-10 -1.6242062e-15 0
-10 -6.842123e-17 0
-10 3.2603352e-17 0
-10 1.6890488e-15 0
-10 -1.6913613e-15 0
-10 -5.8476309e-18 0
-10 6.5374001e-17 0
-10 1.5226353e-15 0
-10 -4.1782358e-14 0
-10 5.4025526e-11 0
-10 2.5537114e-08 0
-10 -1.7049418e-05 0
-10 -0.0028257867 0
-10 0.0028257867 0
-10 1.7049418e-05 0
-10 -2.5537115e-08 0
-10 -5.4025984e-11 0
-10 4.0621667e-14 0
-10 4.5044329e-17 0
-10 -2.4192558e-18 0
-10 -8.0764009e-16 0
-10 1.8982375e-15 0
-10 -1.6338118e-15 0
-10 -2.7382325e-17 0
-10 1.5826865e-15 0
-10 -1.6246058e-15 0
-10 -6.7843832e-17 0
-10 3.2591154e-17 0
-10 1.6891732e-15 0
-10 -1.6915001e-15 0
-10 -5.840552e-18 0
-10 6.5453408e-17 0
-10 1.5221825e-15 0
-10 -4.1782411e-14 0
-10 5.4025527e-11 0
-10 2.5537114e-08 0
-10 -1.7049418e-05 0
-10 -0.0028257867 0
-10 0.0028257867 0
-10 1.7049418e-05 0
-10 -2.5537115e-08 0
-10 -5.4025981e-11 0
-10 4.0621581e-14 0
-10 4.5002664e-17 0
-10 -2.4025545e-18 0
-10 -8.0732501e-16 0
-10 1.8979993e-15 0
-10 -1.633728e-15 0
-10 -2.7402659e-17 0
-10 1.5825886e-15 0
-10 -1.6244967e-15 0
-10 -6.821656e-17 0
-10 3.2592942e-17 0
-10 1.6892562e-15 0
-10 -1.6916698e-15 0
-10 -5.8420387e-18 0
-10 6.5657244e-17 0
-10 1.5224237e-15 0
-10 -4.1782359e-14 0
-10 5.4025523e-11 0
-10 2.5537114e-08 0
-10 -1.7049418e-05 0
-10 -0.0028257867 0
-10 0.0028257871 0
-10 1.7049416e-05 0
-10 -2.5537244e-08 0
-10 -5.4025945e-11 0
-10 4.0620938e-14 0
-10 4.4886854e-17 0
-10 -2.3138699e-18 0
-10 -8.0678948e-16 0
-10 1.897845e-15 0
-10 -1.6334791e-15 0
-10 -2.7051972e-17 0
-10 1.5830631e-15 0
-10 -1.6232148e-15 0
-10 -6.9299423e-17 0
-10 3.2317387e-17 0
-10 1.6887309e-15 0
-10 -1.6916374e-15 0
-10 -5.8420032e-18 0
-10 6.5627314e-17 0
-10 1.5228465e-15 0
-10 -4.1782019e-14 0
-10 5.4025474e-11 0
-10 2.5537243e-08 0
-10 -1.7049416e-05 0
-10 -0.0028257871 0
-10.000017 0.0028258519 0
-10.000017 1.7057428e-05 0
-10.000017 -2.5541536e-08 0
-10.000017 -5.4043493e-11 0
-10.000017 4.0632573e-14 0
-10.000017 4.5373256e-17 0
-10.000017 -2.5852255e-18 0
-10.000017 -8.0869779e-16 0
-10.000017 1.8978814e-15 0
-10.000017 -1.6341072e-15 0
-10.000017 -2.8455034e-17 0
-10.000017 1.5810661e-15 0
-10.000017 -1.6269057e-15 0
-10.000017 -6.6715237e-17 0
-10.000017 3.3823162e-17 0
-10.000017 1.6902465e-15 0
-10.000017 -1.6920125e-15 0
-10.000017 -5.842339e-18 0
-10.000017 6.5978808e-17 0
-10.000017 1.5213504e-15 0
-10.000017 -4.1792113e-14 0
-10.000017 5.4042982e-11 0
-10.000017 2.5541536e-08 0
-10.000017 -1.7057428e-05 0
-10.000017 -0.0028258519 0
-10.00267 0.0026698306 0
-10.002826 1.7240728e-05 0
-10.002826 -2.4662158e-08 0
-10.002826 -5.4608878e-11 0
-10.002826 3.9444951e-14 0
-10.002826 4.641187e-17 0
-10.002826 -2.7540062e-18 0
-10.002826 -7.8912742e-16 0
-10.002826 1.8496249e-15 0
-10.002826 -1.5929876e-15 0
-10.002826 -2.8688126e-17 0
-10.002826 1.5397624e-15 0
-10.002826 -1.5876201e-15 0
-10.002826 -6.3897381e-17 0
-10.002826 3.4143558e-17 0
-10.002826 1.6481828e-15 0
-10.002826 -1.6492975e-15 0
-10.002826 -5.8422155e-18 0
-10.002826 6.4713723e-17 0
-10.002826 1.4802139e-15 0
-10.002826 -4.0550219e-14 0
-10.002826 5.4608056e-11 0
-10.002826 2.4662158e-08 0
-10.002826 -1.7240728e-05 0
-10.00267 -0.0026698306 0
-10.022095 0.029619756 0
-10.022228 0.00064655787 0
-10.02223 -2.8503013e-07 0
-10.02223 -7.9268269e-10 0
-10.02223 2.6645223e-10 0
-10.02223 2.856034e-13 0
-10.02223 -1.4654071e-13 0
-10.02223 -5.8723666e-13 0
-10.02223 2.6449173e-15 0
-10.02223 -2.9533945e-13 0
-10.02223 -5.8615284e-13 0
-10.02223 -8.765272e-13 0
-10.02223 -8.4728149e-12 0
-10.02223 8.7952793e-13 0
-10.02223 5.8616543e-13 0
-10.02223 5.8847567e-13 0
-10.02223 -2.3537962e-15 0
-10.02223 -1.1864237e-17 0
-10.02223 8.9181666e-17 0
-10.02223 -5.8446326e-13 0
-10.02223 -9.1224628e-13 0
-10.02223 7.9790054e-10 0
-10.02223 2.8511273e-07 0
-10.022228 -0.00064655783 0
-10.022095 -0.029619756 0
10.018802 -0.22685239 0
10.021375 -0.0057159032 0
10.021378 1.4670397e-06 0
10.021378 4.3727355e-09 0
10.021378 -1.2071827e-10 0
10.021378 2.702049e-13 0
10.021378 -1.3367723e-13 0
10.021378 -5.3570148e-13 0
10.021378 2.5105294e-15 0
10.021378 -2.6948174e-13 0
10.021378 -5.3467184e-13 0
10.021378 -7.9971166e-13 0
10.021378 -1.0461499e-12 0
10.021378 8.0202044e-13 0
10.021378 5.3468273e-13 0
10.021378 5.3687505e-13 0
10.021378 -2.2337856e-15 0
10.021378 -1.0716325e-17 0
10.021378 8.5443039e-17 0
10.021378 -5.3258134e-13 0
10.021378 -4.5376681e-13 0
10.021378 -4.4418833e-09 0
10.021378 -1.4683084e-06 0
10.021375 0.005715902 0
10.018802 0.22685239 0
-10.019943 0.21906661 0
-10.022546 0.0054289876 0
-10.022547 -1.3906133e-06 0
-10.022547 -3.9145088e-09 0
-10.022547 9.8874362e-11 0
-10.022547 1.1532408e-13 0
-10.022547 -5.8089035e-14 0
-10.022547 -2.3336334e-13 0
-10.022547 2.3636179e-15 0
-10.022547 -1.1821692e-13 0
-10.022547 -2.3239449e-13 0
-10.022547 -3.4655067e-13 0
-10.022547 -3.9047471e-13 0
-10.022547 3.4847347e-13 0
-10.022547 2.3240231e-13 0
-10.022547 2.3446727e-13 0
-10.022547 -2.1039518e-15 0
-10.022547 -9.5696048e-18 0
-10.022547 8.0582955e-17 0
-10.022547 -2.3048368e-13 0
-10.022547 -4.6218206e-13 0
-10.022547 3.9872197e-09 0
-10.022547 1.3918186e-06 0
-10.022546 -0.0054289864 0
-10.019943 -0.21906661 0
10.020002 -0.052776325 0
10.020225 -0.0014260036 0
10.020225 1.8188898e-07 0
10.020225 2.2635593e-10 0
10.020225 4.6015904e-13 0
10.020225 6.1627247e-14 0
10.020225 -3.0958951e-14 0
10.020225 -1.24731e-13 0
10.020225 2.2168581e-15 0
10.020225 -6.3805223e-14 0
10.020225 -1.2382207e-13 0
10.020225 -1.8383459e-13 0
10.020225 -2.4948004e-13 0
10.020225 1.8560368e-13 0
10.020225 1.2382898e-13 0
10.020225 1.2576553e-13 0
10.020225 -1.9738387e-15 0
10.020225 -8.4262405e-18 0
10.020225 7.5466993e-17 0
10.020225 -1.2232601e-13 0
10.020225 -2.8786736e-13 0
10.020225 -2.6217823e-10 0
10.020225 -1.8223176e-07 0
10.020225 0.0014260033 0
10.020002 0.052776326 0
-10.020878 0.048920186 0
-10.020975 0.0012073076 0
-10.020976 -2.339e-07 0
-10.020976 -4.9919961e-10 0
-10.020976 3.9340856e-13 0
-10.020976 1.1221305e-13 0
-10.020976 -5.6096957e-14 0
-10.020976 -2.2525288e-13 0
-10.020976 2.0711651e-15 0
-10.020976 -1.1397083e-13 0
-10.020976 -2.244033e-13 0
-10.020976 -3.3483168e-13 0
-10.020976 -4.5051848e-13 0
-10.020976 3.3648337e-13 0
-10.020976 2.2440938e-13 0
-10.020976 2.2621813e-13 0
-10.020976 -1.8444907e-15 0
-10.020976 -7.2823255e-18 0
-10.020976 7.0589389e-17 0
-10.020976 -2.2271056e-13 0
-10.020976 -2.8267702e-13 0
-10.020976 5.2886534e-10 0