# vtk DataFile Version 4.0
hesp visualization file
ASCII
DATASET UNSTRUCTURED_GRID
POINTS 1250 double
35.346142 6.2847433 4
31.691859 -1.0397562 4
34.941 5.9306337 4
29.428317 1.6920742 4
29.636905 4.6301549 4
30.245393 7.9700346 4
30.458433 6.9446766 4
33.335748 8.6302247 4
29.423057 10.009094 4
31.798901 11.130103 4
28.418269 12.548757 4
32.82273 14.343209 4
31.739045 15.702075 4
32.800277 15.454823 4
30.151011 15.981867 4
31.788183 17.966955 4
29.18641 17.192201 4
30.432057 18.214469 4
31.559547 20.577999 4
30.963536 19.508241 4
31.787886 21.814984 4
34.500314 27.377606 4
36.439526 23.505335 4
32.2529 29.440839 4
31.333782 28.157409 4
30.706222 -10.840384 4
31.889596 2.0468405 4
32.216531 -2.8074463 4
34.645124 5.6356734 4
35.844078 4.4094767 4
28.44102 7.6981131 4
30.52467 5.3621378 4
29.93117 11.137794 4
31.552696 9.5989705 4
31.336874 11.960455 4
32.977849 11.885381 4
28.937321 12.330662 4
31.106957 15.102851 4
29.473339 16.183106 4
30.000146 15.417407 4
32.71159 17.898006 4
32.592072 17.576988 4
30.970467 18.761564 4
29.735616 19.847981 4
29.490933 21.400703 4
31.182331 24.414122 4
32.281342 23.974481 4
32.225077 31.987338 4
33.035197 28.314425 4
30.706222 40.024397 4
31.862456 -2.3222766 4
34.72738 4.5377556 4
29.322536 6.9863157 4
32.916794 5.7115243 4
34.390442 4.7110123 4
28.679191 9.6715842 4
32.155923 12.782929 4
32.320507 10.785458 4
32.456331 9.1214995 4
31.717143 10.82802 4
28.756741 12.87756 4
32.98074 13.501736 4
33.309608 15.266555 4
32.453826 16.88781 4
32.10789 18.066241 4
32.207923 17.287523 4
30.153858 18.695239 4
30.621224 21.449397 4
34.686106 18.999128 4
31.710975 17.524085 4
34.148629 23.774839 4
35.777337 24.9562 4
32.354288 25.83993 4
33.225197 25.292116 4
31.864962 31.498542 4
31.483619 -2.7875178 4
32.427599 -6.1713696 4
31.915756 4.7398009 4
33.269371 3.9675838 4
28.241394 4.8149092 4
31.211063 10.545109 4
33.749707 7.7412175 4
30.59558 10.941794 4
32.646797 13.085105 4
32.822256 10.667072 4
32.301845 11.545957 4
29.273454 13.004235 4
28.20846 13.868211 4
30.082706 16.375331 4
29.847754 16.854689 4
32.935429 18.680792 4
34.747419 17.852293 4
31.371508 20.180533 4
32.417832 22.152936 4
30.413042 24.665704 4
32.960512 24.613857 4
36.040441 25.72413 4
30.706686 25.360917 4
32.427603 35.355384 4
31.483293 31.971973 4
31.918236 7.0168291 4
32.478211 3.716508 4
33.152137 -0.22074952 4
36.975784 3.1014473 4
31.135398 8.7112318 4
30.855955 3.4232229 4
30.754679 7.939442 4
33.379075 12.136514 4
32.579414 11.063428 4
31.7682 14.677235 4
32.621657 15.226521 4
34.963581 16.137187 4
34.121068 16.153895 4
30.828456 17.311425 4
31.577906 17.253723 4
32.648155 17.107745 4
31.883748 19.454189 4
31.395899 20.948417 4
31.193802 23.525794 4
30.500017 19.468768 4
30.045638 18.956437 4
32.575527 20.949125 4
32.772266 29.092481 4
33.608904 24.04234 4
35.99437 23.079062 4
30.515305 -3.1935009 4
31.972956 -5.1230318 4
34.857396 2.6197968 4
29.939955 10.861589 4
31.375484 8.0842529 4
31.292514 5.3223021 4
35.465191 8.1757544 4
33.791615 8.9490889 4
32.360115 8.7702473 4
34.829578 8.6022803 4
33.2289 12.817114 4
34.141942 10.735139 4
34.024984 11.728809 4
34.527886 14.873204 4
35.473909 17.739977 4
33.157686 16.992073 4
32.438445 18.828192 4
32.135442 18.585708 4
30.983613 21.390083 4
30.615708 22.17755 4
33.587033 22.693731 4
30.537703 24.427162 4
34.343594 21.534263 4
31.97331 34.307144 4
30.515299 32.377521 4
30.233979 0.99983946 4
37.265926 2.558782 4
29.305879 0.31679045 4
35.060953 6.8306063 4
29.519584 3.6234103 4
33.4545 6.8708845 4
35.584169 7.0669165 4
32.436603 9.9246522 4
33.058481 10.853369 4
32.995494 11.335933 4
33.428379 13.226935 4
33.444906 13.972842 4
34.735873 15.831192 4
33.779895 12.276229 4
32.953896 17.356116 4
33.240526 17.595085 4
33.399957 20.433357 4
35.978428 19.773971 4
33.470777 20.986436 4
31.303725 21.496195 4
29.380611 22.849595 4
34.711983 23.238389 4
29.117646 28.677536 4
36.860956 25.165934 4
31.453357 28.484501 4
39.099622 -7.1141667 4
32.911793 2.4049031 4
36.156736 1.3315873 4
33.353524 6.5377307 4
35.882085 6.1477776 4
32.91425 6.7519461 4
33.042989 9.7954139 4
36.348237 10.608122 4
35.337855 11.11021 4
34.257878 9.9238886 4
34.682656 11.235022 4
33.465393 13.677367 4
35.377244 13.542445 4
35.039604 16.515118 4
35.299356 14.819829 4
34.719394 17.180231 4
33.568442 20.251686 4
38.55446 19.539975 4
34.365524 20.439462 4
32.812871 21.491997 4
36.297158 25.968705 4
33.007811 23.820305 4
36.124022 27.885434 4
32.639083 26.559369 4
39.099622 36.29818 4
31.82241 1.3823464 4
30.519946 1.4130364 4
36.295262 -0.59154604 4
34.914689 7.6822352 4
37.311253 5.5584259 4
35.802467 5.3353371 4
33.928888 8.2574004 4
35.126821 11.784555 4
34.035352 13.355112 4
34.877165 12.540659 4
34.672325 12.957156 4
34.96481 14.501272 4
33.439033 16.44009 4
33.939318 13.840264 4
35.728949 17.93889 4
34.490785 16.678416 4
34.751137 18.37596 4
36.19826 18.388903 4
32.415986 20.297045 4
35.059511 21.743213 4
34.70019 21.064423 4
38.257173 23.292482 4
36.921737 29.852534 4
30.548313 27.696213 4
31.26645 26.605006 4
32.537974 0.58417486 4
33.571652 -3.8753224 4
34.95734 1.8845208 4
35.445114 4.4759024 4
35.786984 6.8873521 4
35.100068 9.6712469 4
36.277841 8.7708886 4
34.600861 10.509597 4
37.511032 10.514829 4
35.664649 11.147826 4
37.123827 11.792267 4
36.310995 11.712487 4
33.241259 13.546135 4
35.644897 15.184188 4
37.361989 16.729431 4
37.225366 17.199931 4
34.882485 17.442117 4
33.994882 18.345801 4
36.624947 20.311279 4
37.381669 22.608433 4
35.339529 22.526266 4
35.34434 23.862297 4
34.885803 27.053502 4
33.571653 33.059332 4
32.400764 28.439549 4
31.638173 -0.49230109 4
35.793356 3.110137 4
37.744736 5.8211432 4
33.293967 1.5673803 4
40.318794 5.4478948 4
36.462346 6.3222015 4
36.182427 7.403117 4
35.451198 11.671206 4
37.522577 9.3319707 4
37.071418 10.806583 4
36.152058 12.306043 4
36.823681 15.14536 4
38.600596 13.481449 4
36.157764 16.953462 4
37.035193 17.356682 4
35.803269 18.581561 4
36.402683 18.892058 4
35.114999 19.47918 4
35.345057 20.525455 4
36.640289 21.475094 4
37.218254 25.804817 4
33.519633 28.09705 4
34.414333 24.548781 4
35.8592 26.622388 4
31.596947 29.900205 4
31.372564 -1.3909226 4
33.900257 -0.66580672 4
38.890167 8.7323351 4
35.00457 3.377191 4
34.086543 6.7825648 4
37.122454 6.427381 4
36.333697 8.0736729 4
35.258982 8.9784325 4
36.212542 10.01313 4
37.26785 10.658423 4
36.245815 12.019476 4
37.489916 11.65276 4
36.58256 14.308757 4
37.034187 15.450809 4
37.572723 17.686582 4
36.713671 17.608122 4
36.18043 19.10725 4
37.57597 19.489469 4
36.063063 20.944856 4
40.881439 22.686388 4
34.849512 20.323876 4
34.892338 25.799953 4
39.038121 19.779819 4
33.909518 29.88225 4
31.372933 30.578966 4
31.87961 0.57831291 4
33.370188 -0.52789444 4
39.464375 2.9126438 4
38.694196 6.6736806 4
36.927709 5.5536383 4
38.817262 7.5030797 4
38.796705 9.8325986 4
36.415655 9.0289063 4
37.526739 9.8108339 4
38.591248 11.635139 4
37.145372 13.01735 4
36.582941 12.988993 4
35.487753 14.979557 4
36.400364 15.437353 4
39.964155 15.743043 4
37.362049 18.310352 4
37.304782 19.006146 4
37.192217 20.110404 4
38.414949 19.790773 4
38.8582 22.999255 4
37.731353 22.597272 4
37.747466 24.075317 4
39.37157 26.11732 4
33.441032 29.775733 4
31.791367 27.95788 4
32.357029 -0.74024603 4
36.17377 2.0484496 4
35.408492 0.81840838 4
36.276922 4.6722072 4
38.382648 3.8174319 4
37.16443 7.4436621 4
37.830511 8.1804813 4
37.647327 8.7933563 4
38.456277 9.8432675 4
38.42346 11.227361 4
39.603269 11.622015 4
38.221341 12.779075 4
39.287253 13.809314 4
37.759809 16.728374 4
38.424126 16.791129 4
38.425658 17.959424 4
38.449353 19.273118 4
37.481771 20.142649 4
36.56148 21.228125 4
38.381799 21.124271 4
37.987121 24.359476 4
35.661438 25.854353 4
35.446903 28.292006 4
36.288989 27.132426 4
32.358085 29.913 4
36.372524 -0.8586397 4
34.493173 0.89866473 4
35.999856 2.5642008 4
37.300529 4.7805986 4
39.079176 3.5327851 4
38.504842 8.5705423 4
37.747074 7.7883767 4
39.907236 9.2373727 4
39.763451 10.513387 4
39.547738 11.225684 4
38.625014 12.370514 4
40.092178 14.457882 4
40.99787 14.897837 4
40.603393 14.772547 4
39.556568 16.929327 4
39.547897 17.959194 4
39.704623 18.712035 4
39.548247 20.139466 4
37.727534 21.347569 4
38.979761 20.761177 4
38.612345 23.930548 4
36.059985 24.705313 4
35.894906 26.915194 4
34.508325 28.337383 4
36.446559 29.903008 4
37.338124 -0.81479201 4
37.495458 3.4653148 4
38.171932 6.1020281 4
38.184238 2.2385204 4
38.743859 7.9590361 4
37.926908 6.3034038 4
39.803415 8.197828 4
39.798324 8.796253 4
40.098937 9.8795672 4
40.349114 11.224204 4
39.756319 12.248693 4
39.133239 12.891962 4
37.987325 14.306664 4
38.869039 15.848829 4
40.339019 16.772439 4
40.349196 17.959582 4
40.168046 19.292911 4
40.127985 20.255608 4
39.871285 21.616279 4
37.951529 22.404835 4
38.62677 24.484475 4
38.169164 25.325521 4
39.442052 24.505448 4
36.818916 25.662079 4
37.289542 30.13588 4
36.449084 0.99415943 4
38.08367 3.7176112 4
41.630838 2.1854002 4
42.799537 6.2220823 4
39.225534 4.2999234 4
39.961738 6.996888 4
40.669624 7.7347334 4
40.903888 9.1628674 4
40.874144 10.099566 4
40.874114 11.224715 4
40.909686 12.539118 4
39.959077 13.576643 4
39.042425 14.777693 4
40.640934 16.785478 4
40.880817 16.846219 4
40.874113 17.95933 4
40.874142 19.084478 4
40.874278 20.20936 4
40.397438 21.067535 4
38.349179 21.841658 4
40.275272 21.472054 4
42.70249 24.38764 4
41.777474 27.419272 4
38.062576 25.79401 4
36.533536 28.221055 4
37.608093 0.86558169 4
36.967911 1.1093667 4
37.74995 2.4802179 4
38.307073 4.3306654 4
39.191693 6.913035 4
41.167647 6.8351051 4
41.105231 7.6281549 4
41.641405 8.8761284 4
41.677137 10.103799 4
41.677144 11.224558 4
41.636812 12.22699 4
41.118724 13.174298 4
40.925165 13.893135 4
41.119887 16.01261 4
41.676856 16.831728 4
41.677143 17.959432 4
41.677137 19.080191 4
41.676384 20.19061 4
41.110277 21.575456 4
40.157046 22.389418 4
40.965575 22.455044 4
38.64133 25.606534 4
38.109007 26.939224 4
36.9445 28.086083 4
37.397265 28.048183 4
38.394329 1.0876392 4
39.560549 -0.92020598 4
[...]
POINT_DATA 1250
SCALARS m double
LOOKUP_TABLE default
1
1
1
1
1
1
1
1
1
1
1
1
1
1
1
1
1
1
1
1
1
1
1
1
1
1
1
1
1
1
1
1
1
1
1
1
1
1
1
1
1
1
1
1
1
1
1
1
1
1
1
1
1
1
1
1
1
1
1
1
1
1
1
1
1
1
1
1
1
1
1
1
1
1
1
1
1
1
1
1
1
1
1
1
1
1
1
1
1
1
1
1
1
1
1
1
1
1
1
1
1
1
1
1
1
1
1
1
1
1
1
1
1
1
1
1
1
1
1
1
1
1
1
1
1
1
1
1
1
1
1
1
1
1
1
1
1
1
1
1
1
1
1
1
1
1
1
1
1
1
1
1
1
1
1
1
1
1
1
1
1
1
1
1
1
1
1
1
1
1
1
1
1
1
1
1
1
1
1
1
1
1
1
1
1
1
1
1
1
1
1
1
1
1
1
1
1
1
1
1
1
1
1
1
1
1
1
1
1
1
1
1
1
1
1
1
1
1
1
1
1
1
1
1
1
1
1
1
1
1
1
1
1
1
1
1
1
1
1
1
1
1
1
1
1
1
1
1
1
1
1
1
1
1
1
1
1
1
1
1
1
1
1
1
1
1
1
1
1
1
1
1
1
1
1
1
1
1
1
1
1
1
1
1
1
1
1
1
1
1
1
1
1
1
1
1
1
1
1
1
1
1
1
1
1
1
1
1
1
1
1
1
1
1
1
1
1
1
1
1
1
1
1
1
1
1
1
1
1
1
1
1
1
1
1
1
1
1
1
1
1
1
1
1
1
1
1
1
1
1
1
1
1
1
1
1
1
1
1
1
1
1
1
1
1
1
1
1
1
1
1
1
1
1
1
1
1
1
1
1
1
1
1
1
1
1
1
1
1
1
1
1
1
1
1
1
1
1
1
1
1
1
1
1
1
1
1
1
1
1
1
1
1
1
1
1
1
1
1
1
1
1
1
1
1
1
1
1
1
1
1
1
1
1
1
1
1
1
1
1
1
1
1
1
1
1
1
1
1
1
1
1
1
1
1
1
1
1
1
1
1
1
1
1
1
1
1
1
1
1
1
1
1
1
1
1
1
1
1
1
1
1
1
1
1
1
1
1
1
1
1
1
1
1
1
1
1
1
1
1
1
1
1
1
1
1
1
1
1
1
1
1
1
1
1
1
1
1
1
1
1
1
1
1
1
1
1
1
1
1
1
1
1
1
1
1
1
1
1
1
1
1
1
1
1
1
1
1
1
1
1
1
1
1
1
1
1
1
1
1
1
1
1
1
1
1
1
1
1
1
1
1
1
1
1
1
1
1
1
1
1
1
1
1
1
1
1
1
1
1
1
1
1
1
1
1
1
1
1
1
1
1
1
1
1
1
1
1
1
1
1
1
1
1
1
1
1
1
1
1
1
1
1
1
1
1
1
1
1
1
1
1
1
1
1
1
1
1
1
1
1
1
1
1
1
1
1
1
1
1
1
1
1
1
1
1
1
1
1
1
1
1
1
1
1
1
1
1
1
1
1
1
1
1
1
1
1
1
1
1
1
1
1
1
1
1
1
1
1
1
1
1
1
1
1
1
1
1
1
1
1
1
1
1
1
1
1
1
1
1
1
1
1
1
1
1
1
1
1
1
1
1
1
1
1
1
1
1
1
1
1
1
1
1
1
1
1
1
1
1
1
1
1
1
1
1
1
1
1
1
1
1
1
1
1
1
1
1
1
1
1
1
1
1
1
1
1
1
1
1
1
1
1
1
1
1
1
1
1
1
1
1
1
1
1
1
1
1
1
1
1
1
1
1
1
1
1
1
1
1
1
1
1
1
1
1
1
1
1
1
1
1
1
1
1
1
1
1
1
1
1
1
1
1
1
1
1
1
1
1
1
1
1
1
1
1
1
1
1
1
1
1
1
1
1
1
1
1
1
1
1
1
1
1
1
1
1
1
1
1
1
1
1
1
1
1
1
1
1
1
1
1
1
1
1
1
1
1
1
1
1
1
1
1
1
1
1
1
1
1
1
1
1
1
1
1
1
1
1
1
1
1
1
1
1
1
1
1
1
1
1
1
1
1
1
1
1
1
1
1
1
1
1
1
1
1
1
1
1
1
1
1
1
1
1
1
1
1
1
1
1
1
1
1
1
1
1
1
1
1
1
1
1
1
1
1
1
1
1
1
1
1
1
1
1
1
1
1
1
1
1
1
1
1
1
1
1
1
1
1
1
1
1
1
1
1
1
1
1
1
1
1
1
1
1
1
1
1
1
1
1
1
1
1
1
1
1
1
1
1
1
1
1
1
1
1
1
1
1
1
1
1
1
1
1
1
1
1
1
1
1
1
1
1
1
1
1
1
1
1
1
1
1
1
1
1
1
1
1
1
1
1
1
1
1
1
1
1
1
1
1
1
1
1
1
1
1
1
1
1
1
1
1
1
1
1
1
1
1
1
1
1
1
1
1
1
1
1
1
1
1
1
1
1
1
1
1
1
1
1
1
1
1
1
1
1
1
1
1
1
1
1
1
1
1
1
1
1
1
1
1
1
1
1
1
1
1
1
1
1
1
1
1
1
1
1
1
1
1
1
1
1
1
1
1
1
1
1
1
1
1
1
1
1
1
1
1
1
1
1
1
1
1
1
1
1
1
1
1
1
1
1
1
1
1
1
1
1
1
1
1
1
1
1
1
1
1
1
1
1
1
1
1
1
1
1
1
1
1
1
1
1
1
1
1
1
1
1
1
1
1
1
1
1
1
1
1
1
1
1
1
1
1
1
1
1
1
1
1
1
1
1
1
1
1
1
1
1
1
1
1
1
1
1
1
1
1
1
1
1
VECTORS v double
8.1386281 9.0948114 0
4.5490417 -10.129649 0
4.447447 2.725817 0
-7.6357675 -7.0320254 0
3.5264194 -0.60277939 0
-2.6444561 1.8312552 0
-5.9611002 -0.79318588 0
6.8679503 -12.012587 0
-7.6975134 6.8908402 0
11.028079 7.440272 0
-5.5476005 -1.7047546 0
2.5177712 3.6687179 0
-4.1411694 -12.565384 0
11.33302 10.341311 0
-3.1210452 -5.866815 0
9.3964718 1.3922827 0
-7.9129675 -9.7499499 0
1.8450948 -7.0263265 0
-1.8248272 8.1676696 0
2.2498786 1.8515901 0
-6.5170507 -4.4863967 0
7.7291526 8.4755927 0
-4.8380911 9.5123559 0
7.1888651 7.9341778 0
-10.874913 4.7044703 0
2.6310324 -13.726701 0
-8.3791412 0.33327236 0
5.3819955 -9.5980152 0
5.4739483 -0.64841259 0
2.9870062 -9.8436848 0
1.1817509 2.7041151 0
-6.5408768 -11.180913 0
7.4648698 13.97114 0
-5.5666642 -5.9229598 0
-7.1841684 6.9885874 0
2.4484186 5.9082367 0
-3.9045612 -4.5235926 0
7.2099271 2.2618366 0
4.0069778 7.0760975 0
-7.1141264 -13.645993 0
8.8131587 0.23397963 0
-2.0422933 -1.7272737 0
2.9688088 12.506269 0
-3.8404826 -14.161422 0
8.190479 -5.1774657 0
-4.6335731 -3.5638083 0
7.97061 -2.0519519 0
5.4024021 9.5925892 0
-2.4193934 8.4155217 0
2.6310325 13.726701 0
0.1542286 -9.4779325 0
8.1172191 0.935704 0
4.2384 5.4879397 0
2.6489595 0.56094894 0
12.99807 1.3290028 0
0.82405407 5.3662977 0
-15.905233 0.045477111 0
-1.4545235 6.9041742 0
-12.790768 0.30258666 0
2.7780113 -0.69332823 0
-9.6912982 0.14959777 0
-1.7284636 1.49779 0
-11.489466 -7.8250952 0
-7.1309779 3.2187767 0
-0.22066029 7.470685 0
-12.145095 -3.9486871 0
-7.6834843 -10.674399 0
-9.2744593 -7.6014493 0
13.474353 7.0896945 0
-1.7358362 -8.4968924 0
10.060027 0.43928734 0
3.253006 -1.3267768 0
9.2795462 11.536098 0
-10.545821 -2.2574574 0
0.16146961 9.4454424 0
-0.42686189 -3.5951467 0
6.835203 -10.618118 0
5.4771362 7.8026081 0
-10.36628 2.3868831 0
-2.5793341 -6.0317728 0
-8.8793863 0.67132011 0
2.4201022 -5.5279198 0
9.8029269 10.810432 0
-10.312753 -8.0500334 0
2.548376 -8.8342619 0
-7.3090911 7.310544 0
-8.0387991 0.12718435 0
0.83971931 3.7011926 0
5.2872948 2.0310067 0
3.1221831 -4.6922949 0
2.3068704 11.637945 0
3.954362 -4.4098858 0
-2.1651952 3.0980038 0
0.74134545 9.9970795 0
-1.0062675 14.04493 0
7.3164471 2.0856254 0
1.7833495 -8.4145006 0
-7.4811893 1.7467786 0
6.8352096 10.618123 0
-0.43386337 3.6021153 0
10.507524 1.3573466 0
3.8735111 -2.5902729 0
10.012161 -5.7738759 0
0.83764896 -9.263046 0
-6.2004808 9.9108841 0
-5.6855246 -10.58965 0
1.7277484 10.916133 0
0.64112165 16.535741 0
4.3186403 5.6972081 0
-11.520959 12.080658 0
7.9356752 3.607954 0
12.146238 11.693014 0
6.827201 5.1965963 0
-9.8514343 3.842657 0
-6.8557236 7.1231016 0
2.2875222 7.6878883 0
-1.7051277 -6.2945805 0
-2.195855 2.3253728 0
2.0502698 3.4005882 0
-7.49283 -10.01349 0
-8.2507656 -5.8657705 0
-8.7608464 -6.9929376 0
7.9992009 4.2789635 0
11.450314 -4.4445823 0
5.720693 -6.5822593 0
-1.1115935 -6.3275853 0
-1.9961598 -10.927416 0
-7.9013198 -10.266849 0
-3.5986925 8.3581623 0
-11.814667 5.0902135 0
-0.50718978 -9.197777 0
11.30107 6.3133453 0
10.330691 -3.7325461 0
-2.2817917 -12.655868 0
-3.9369486 -9.9301635 0
-0.37645707 -10.066963 0
2.55805 -8.9369475 0
-2.4043194 -0.22000514 0
1.1185373 9.3853717 0
6.3843832 8.4893152 0
-16.146167 0.59738459 0
-9.9009487 -1.7546628 0
-2.7715381 -6.4173545 0
-7.374532 -4.5277651 0
-3.5801024 15.653244 0
3.1140697 5.7117052 0
0.81270187 5.9616861 0
6.2037686 -6.4993273 0
-1.9955715 10.927585 0
-1.1116173 6.327616 0
-5.7453586 -5.0703689 0
4.5224648 -6.1674003 0
-6.4054455 -6.8855162 0
6.1417849 6.2461442 0
-7.2339251 -8.840885 0
-5.0210139 7.1795955 0
-10.867978 -4.2569812 0
-3.1908769 -8.8767784 0
-3.7733641 5.2765616 0
8.1510106 3.8669172 0
11.654811 7.2637107 0
2.939484 4.431851 0
7.5951094 10.646108 0
-1.3621702 -12.704438 0
3.8653752 -3.1474264 0
11.23408 -1.2258627 0
0.39423038 3.2010219 0
-9.4921631 -9.0290479 0
-6.0240151 -2.9426064 0
-4.2154 -0.16195802 0
-13.202205 4.7277483 0
3.9693198 -3.960088 0
-6.9057214 6.1651088 0
1.7997157 -3.3916285 0
6.6739152 10.902521 0
4.8370531 -9.9977527 0
-2.5817408 0.23477302 0
-7.2774753 3.44792 0
-7.6461429 -7.584377 0
-4.6738484 -0.41020661 0
-8.5228132 2.5970375 0
-5.4903871 6.3646873 0
1.0514273 10.144195 0
7.8113251 -3.7819816 0
2.2291305 10.253942 0
-2.274072 0.55589329 0
-12.993297 6.3814204 0
-9.0409988 5.4504302 0
-5.7513677 1.7828462 0
10.056931 -14.267036 0
-1.8501084 -11.978428 0
-5.2870321 8.917041 0
14.295641 0.41603024 0
-12.968809 -9.8332564 0
-9.0307711 -6.9922887 0
6.0218891 15.962187 0
-0.75452747 7.9677891 0
-8.5505949 -2.3875294 0
-5.1942012 -1.9845374 0
4.8370532 9.9977527 0
-8.5334527 0.31208588 0
-9.9481903 -1.659234 0
-4.4260703 -11.093042 0
-9.4345588 8.7775189 0
3.0084507 -3.2642009 0
-7.0433451 -8.6286466 0
-4.0329875 -18.958366 0
-13.979163 0.33097707 0
-8.9637433 17.782074 0
-4.7483701 9.2400283 0
-0.23875006 1.4431265 0
-4.1481487 5.4716809 0
-5.7439056 0.23908306 0
-3.5039143 -8.9865109 0
-1.0735772 6.6046261 0
5.4660504 -6.8143219 0
-11.42265 -0.30148022 0
-5.3737164 9.0138998 0
-12.979884 -6.5435345 0
1.3783494 0.081501104 0
0.081377355 4.0993897 0
8.1856633 -4.3827011 0
-1.4991527 12.412259 0
-9.486309 0.44684593 0
-4.3227073 2.9124553 0
3.2793036 -3.5736695 0
-3.9332925 -8.257646 0
-8.7403683 -4.7331285 0
-4.059252 -0.28283707 0
-7.6555805 -2.2651895 0
7.4731504 1.3914521 0
-6.8948822 -1.8435604 0
-1.3762955 3.0925735 0
6.3810328 4.1365762 0
-13.192842 -6.76241 0
-1.7038386 2.4930046 0
4.0140507 3.2948244 0
-0.66479998 10.223654 0
5.0031099 -10.106695 0
6.3038878 -5.5842704 0
-5.2741628 6.8115002 0
-2.9771115 -3.9368476 0
-8.3911837 -3.9996789 0
0.0224061 4.7934568 0
-0.53334036 -3.7741511 0
-5.8515127 4.563285 0
-4.670375 -5.1557024 0
-9.3769179 2.5741093 0
-3.9332903 8.2576402 0
1.0573614 1.9450178 0
11.74615 -4.2819184 0
2.3430417 5.6585637 0
9.8424189 3.9834558 0
-7.3236813 -7.2821742 0
9.160026 -0.4839172 0
7.5581151 0.23406327 0
1.2003655 -4.6220358 0
20.239908 3.7964648 0
-2.1498431 5.9580222 0
-2.6352774 1.0129975 0
-4.6159449 0.96477677 0
1.4254788 9.5416488 0
5.8186046 -9.3646827 0
-4.0540782 4.8566484 0
3.1638427 -6.8400299 0
12.387433 5.6093333 0
-4.7300126 12.388827 0
-8.4100781 1.9122995 0
-3.1207853 0.8128296 0
1.0285572 -3.3755344 0
-0.51315327 7.2299091 0
-6.7482203 8.5266658 0
-6.5984465 0.86512911 0
0.81587051 -1.1312368 0
11.516701 5.1828654 0
-7.9597524 -7.0163904 0
-9.7919654 -5.4672064 0
3.7491645 -1.1211188 0
5.5130264 -3.3113001 0
-3.6890536 -3.0767834 0
-0.25460194 -7.3552042 0
-10.657509 3.4482306 0
-10.036248 -0.013538104 0
-8.8397883 -1.623421 0
-5.0302095 -7.0289666 0
-5.8599705 -9.4385022 0
5.2269739 -8.0137438 0
-9.7817792 3.1493708 0
-2.0797325 -9.8907892 0
-0.44781203 -1.5871662 0
1.7753697 -7.4108216 0
-10.017228 0.12688755 0
7.0220414 -5.2025573 0
-6.7317193 -4.9504371 0
10.868983 2.5979918 0
-11.506846 -7.4945461 0
6.0682377 3.1178399 0
2.4126739 -16.763333 0
-9.7853015 5.5571515 0
-7.9850961 7.1901104 0
-9.0205634 -9.0489711 0
-6.2771004 -8.5867803 0
4.3697506 0.29852789 0
0.37150907 5.5178036 0
2.9656245 -2.1209099 0
5.3314974 8.7034579 0
-2.0974955 15.215964 0
-5.615904 6.7985459 0
-0.1624925 -16.485898 0
7.4798847 5.4410042 0
-14.043001 3.4133431 0
-8.7299274 -3.6404031 0
-9.5001353 -0.65782987 0
-9.8368539 -1.227081 0
17.633099 -11.467214 0
-8.1988494 10.966378 0
-9.9786585 -0.54275279 0
13.787122 -2.4478892 0
-10.459376 -1.3082005 0
9.7325925 2.9373093 0
-7.0867715 4.3471271 0
4.349682 7.8531988 0
3.5918336 -1.5350577 0
-5.9195958 8.8791454 0
-10.080895 -1.2445592 0
-11.474522 -4.9100987 0
-9.6491299 -0.35496981 0
-4.0506109 -9.1708559 0
-5.513617 3.2512901 0
-6.2809615 -3.3885235 0
-3.4940801 12.627293 0
7.2064525 8.2671973 0
-2.0005021 -11.623798 0
-9.6831609 -3.0874603 0
-10.06408 0.16955895 0
7.3604399 -5.9503456 0
-1.9872593 -1.5939494 0
3.3493298 6.5658194 0
-8.5145721 5.8350946 0
-10.023266 -0.57466594 0
-9.9946095 0.00018485897 0
-9.6613419 -2.9200617 0
-10.128492 -0.50166664 0
-12.692038 -14.484473 0
-3.113101 -9.2044219 0
0.59540157 4.1088661 0
-3.1754295 9.6960292 0
-3.9748931 8.6425497 0
4.6569257 7.8434936 0
-11.479611 4.884294 0
-4.2659052 -7.9599327 0
-8.8656797 -3.3756112 0
-0.44680152 1.3035606 0
4.6623145 5.7367011 0
6.0080284 -7.1666954 0
-12.716833 2.8982022 0
-7.7460715 -4.6900651 0
4.7576021 6.4041148 0
-3.0362563 10.703818 0
-10.00434 0.082630896 0
-10.062038 0.093378179 0
-8.197568 7.7110838 0
8.0519522 -4.9819974 0
0.80289496 -7.7087712 0
-9.7309383 2.4662515 0
-9.9947119 -0.0048436812 0
-5.0302659 -9.6692743 0
-9.7576918 -2.0932286 0
-9.7408702 0.21899958 0
-1.9157069 2.8729436 0
-4.1182704 0.33464302 0
-9.141692 3.3576251 0
-9.9142499 0.18573892 0
-8.8386132 3.5512914 0
-4.0604454 6.4252982 0
-1.6583677 -7.0150205 0
0.15373055 5.1719501 0
-2.5281404 0.20726915 0
-7.6306769 -9.4726741 0
-10.469665 7.3160248 0
-13.397106 -4.1700752 0
-8.9327981 4.6283311 0
-7.7103149 -5.5625916 0
2.620599 -8.2036186 0
9.9974839 -0.012891622 0
-9.9437876 -1.174384 0
-3.3931271 -11.404072 0
-9.6702485 -1.4129125 0
-9.6299 1.191646 0
9.715667 -2.1140529 0
10.000724 0.0058168241 0
4.739301 7.5650779 0
6.3889132 1.9528633 0
-7.1677363 5.3468547 0
0.47337864 -7.5511765 0
-6.6139516 -0.90024369 0
-2.9215327 -9.5553999 0
2.3427332 4.1316382 0
-2.5255939 -5.6171939 0
-1.9194695 7.492635 0
-0.78300511 -7.4132066 0
0.37896338 8.4500129 0
-11.282625 -3.0275747 0
6.04125 3.9315346 0
-10.522293 -7.4937886 0
-9.8329817 2.0824975 0
2.963262 -2.8272959 0
-9.0865096 4.7135806 0
-9.9976949 -0.068014236 0
-10.003655 0.0024138092 0
-8.9108519 5.0257426 0
-9.9722413 0.84945183 0
-9.9730778 0.8536344 0
-6.5821576 10.731521 0
-5.9183436 1.4840247 0
-10.003693 -0.001713938 0
-9.998092 0.068726217 0
-9.9940475 0.21090349 0
-0.072818237 -4.8762065 0
-14.67157 -4.1562379 0
-2.9957771 -7.9562877 0
5.8175658 3.4749517 0
-1.9678081 9.4475838 0
-3.4156932 1.5474123 0
1.0059803 6.9554587 0
-6.3229807 -4.7616043 0
-15.137213 -3.9332161 0
-7.9220843 0.066366471 0
-10.174889 -0.75041417 0
-10.257434 5.5539237 0
-7.7568717 3.8447034 0
-9.6789861 -2.7604944 0
9.020845 -3.656612 0
10.002696 0.055058782 0
10.002895 -0.0020221077 0
8.8562013 -4.0720198 0
-9.4852242 -3.506424 0
6.8527255 -5.4020475 0
-9.4686806 3.5420832 0
9.9945252 -0.16876921 0
10.002874 0.0013071338 0
10.002726 -0.055837745 0
9.9952765 -0.329098 0
-9.5933709 3.0005944 0
-10.022643 -0.27746542 0
-9.7008406 -6.6787977 0
-6.9627432 0.31261529 0
-6.0765487 1.4178582 0
-12.771024 7.4618435 0
-10.254193 -0.1443677 0
-10.6259 -0.20701346 0
-6.4493991 -10.207509 0
-10.005637 0.19117665 0
7.3556736 0.71731713 0
-3.7149217 4.2636418 0
1.6319901 -6.1752646 0
0.056540403 10.94452 0
-9.998765 -0.33145553 0
-10.005824 2.503835e-05 0
-10.005842 2.771938e-05 0
-10.00315 0.011444799 0
-9.1862007 5.9726785 0
6.3933527 -9.5204868 0
-3.6007177 7.5638377 0
-10.005767 0.013599373 0
-10.005835 -3.3398408e-05 0
-10.00583 -1.3459965e-05 0
-10.001242 0.31693761 0
1.5388611 -10.865464 0
2.6427337 -5.0890754 0
-4.2906477 5.9551571 0
-9.9773454 -1.7458247 0
-10.284142 10.622573 0
-6.7161199 10.48689 0
-10.192348 0.050544858 0
-10.007349 0.0085768611 0
-10.014954 0.055983141 0
-10.006577 -0.061109566 0
-7.6917994 -4.5083378 0
8.2657134 -7.9431048 0
-8.8201447 5.2215499 0
-0.40993832 -8.9203741 0
10.000252 0.26801807 0
10.005245 7.1730617e-06 0
10.005244 -1.3360881e-05 0
10.005179 -0.0099052096 0
0.47319722 -8.189398 0
8.3634515 -3.3119373 0
-4.0885537 10.333622 0
10.004887 -0.012944634 0
10.005241 1.8249296e-05 0
10.005245 -4.027766e-06 0
10.000596 -0.25674911 0
-1.9536926 8.6700986 0
-8.9097935 -5.2346285 0
-9.7338835 2.3060552 0
-6.9311205 -3.8595421 0
-10.024271 0.080063837 0
-10.012452 -0.047311713 0
-10.00759 -0.0088431914 0
-9.9999837 0.011542978 0
-9.9866292 0.018460283 0
-14.1447 -4.865415 0
-7.0220182 -2.5839888 0
-9.921289 -0.29329193 0
-3.9623466 -2.1924258 0
-9.8734764 1.7594786 0
-10.007111 2.1006467e-05 0
-10.007111 4.7861898e-07 0
-10.00711 -1.9745801e-08 0
-10.007117 0.00030353907 0
-10.002046 0.00034359484 0
-10.003986 -0.0033718734 0
-10.001099 0.0098057627 0
-10.007135 0.0003787609 0
-10.00711 -6.9682523e-07 0
-10.007111 -3.2400156e-07 0
-10.007119 3.3381475e-06 0
-9.8512746 -1.9048954 0
-4.4611118 -4.2216297 0
4.7087685 9.9845155 0
-4.9785798 3.8593334 0
-10.168846 -5.8970964 0
-9.9078633 -0.076859516 0
-9.9998364 -0.011706697 0
-9.9999105 0.012033349 0
2.0402074 -5.0855767 0
-6.6302005 1.9417017 0
-10.06483 0.17990953 0
-9.9379921 -0.56084738 0
2.0529311 11.264707 0
9.8732604 -1.4344297 0
10.007897 -1.1234753e-05 0
10.007908 -1.6160601e-06 0
10.007908 8.1241806e-09 0
10.007905 -0.00025359426 0
10.007292 -0.00032699297 0
-9.9994439 -0.00033254148 0
10.006627 -0.0074285841 0
10.007897 -0.00031334675 0
10.007908 1.2078957e-08 0
10.007908 1.6444829e-06 0
10.007895 3.7370032e-06 0
9.8496129 1.5525276 0
-1.9240608 -12.070828 0
-11.654513 3.1716652 0
-10.047649 -0.31344706 0
-4.8623719 4.1086061 0
-10.196028 0.14529926 0
-10.00091 -0.014895739 0
-10.000112 0.011607196 0
-10.005612 -0.0018375458 0
-10.000171 -1.4200692e-05 0
-10.001643 0.0049024181 0
4.2971742 10.551482 0
-10.121937 1.6610204 0
-10.020119 -0.0041027237 0
-10.020401 3.0126052e-06 0
-10.020404 7.0413317e-08 0
-10.020404 9.1561761e-10 0
-10.020403 -1.3756937e-06 0
-10.020371 -0.00035246983 0
-10.012946 0.0014859785 0
-10.020366 -0.00029725085 0
-10.020403 1.3789489e-06 0
-10.020404 1.7186345e-09 0
-10.020404 -7.7513977e-08 0
-10.0204 -3.6631813e-06 0
-10.01991 0.00045456779 0
-7.2573423 -14.052414 0
-0.57941793 0.53062604 0
-10.013846 -0.029442161 0
-10.000603 -3.8704028e-05 0
-10.000111 5.6638795e-05 0
-10.000028 -0.0114725 0
-9.9999343 0.011460424 0
-9.9999262 -8.2149092e-05 0
-9.9999205 1.4297483e-05 0
-10.00019 0.0013024015 0
-7.2979035 -7.6531114 0
9.8782167 -1.2147534 0
10.000774 0.0026847272 0
10.000823 -7.3865427e-07 0
10.000824 1.2018064e-09 0
10.000824 1.5961297e-10 0
10.000824 -2.4667871e-08 0
10.000845 0.00024139336 0
10.001052 -0.001209849 0
10.000841 0.00028576084 0
10.000824 4.5888001e-09 0
10.000824 2.2186261e-10 0
10.000824 1.0580152e-12 0
10.000824 -4.3003446e-07 0
10.000786 0.00026512652 0
9.8834081 1.2447391 0
-7.0885426 7.9052153 0
2.0159539 5.9672353 0
-9.999942 -0.00014740561 0
-9.9999206 7.9783386e-05 0
-9.9999308 -0.011458583 0
-10.010824 0.010824326 0
-10.011459 -6.9390722e-05 0
-10.011456 1.7857878e-05 0
-10.012487 0.029276645 0
7.1285709 6.1028456 0
9.9963224 0.00015177282 0
9.99731 1.4318793e-07 0
9.9973138 -1.3713874e-09 0
9.9973138 -1.7425332e-12 0
9.9973138 9.9426852e-14 0
9.9973138 -3.1707947e-11 0
9.9973138 1.4840758e-09 0
9.9973147 -2.7964719e-09 0
9.9973138 2.4673984e-10 0
9.9973138 -1.3647368e-10 0
9.9973138 6.0859553e-14 0
9.9973138 1.507041e-12 0
9.9973138 4.2050079e-10 0
9.9973105 1.6569839e-06 0
9.9961811 0.00081191168 0
6.9061911 -6.2888389 0
-10.011844 -0.036533396 0
-10.011465 -2.8171116e-05 0
-10.011459 6.9079944e-05 0
-10.010824 -0.010824326 0
-3.5563667 7.3664171 0
-5.4352921 -10.361664 0
7.8800756 6.1464416 0
-1.4459782 -7.619944 0
0.57572021 0.62632889 0
-0.51170466 -10.234286 0
-5.4377575 -11.420573 0
9.9740212 5.7163352 0
1.1313498 9.036429 0
-6.4500567 -4.7001247 0
3.4125367 -3.0989587 0
11.806433 1.5812979 0
-4.4324001 -16.919874 0
-6.4546027 -12.806751 0
-15.370215 6.3394715 0
-4.8861339 -0.30738975 0
6.9108293 -10.685296 0
13.928541 -5.9418507 0
-7.8020191 -9.5016984 0
4.1805033 -2.6693426 0
0.74765417 14.877193 0
-5.5828705 8.8130837 0
1.6656171 -0.32226515 0
-5.2996721 8.4760595 0
3.686242 13.693539 0
-2.6310324 -13.726701 0
7.936925 -4.0698215 0
-5.3802326 -9.6212199 0
-5.7200849 -2.3476065 0
-3.3408853 3.7878052 0
6.6753431 -3.7395024 0
12.255259 1.6280112 0
1.2108929 -8.4389599 0
6.4213614 2.8035431 0
9.1998972 -5.9438545 0
-2.7743097 -3.0335604 0
9.977947 12.352039 0
9.7612957 3.8608475 0
-8.9090401 -0.87026291 0
-10.441235 -0.7662883 0
1.1448402 -6.5563214 0
-6.0003208 -2.5601624 0
10.002753 13.884582 0
4.0759191 1.6961926 0
4.3995902 -5.449251 0
-8.317717 7.2303238 0
-7.7592098 -13.000342 0
-5.4027894 9.5867661 0
7.6818763 7.073266 0
-2.6310325 13.726701 0
-0.15431512 -9.4673936 0
7.3965681 -3.0738653 0
-11.124599 1.7579572 0
-10.023728 -5.0513765 0
-10.442396 -8.2108402 0
8.5636109 6.5842979 0
-8.2021756 -6.5273654 0
2.8438222 -13.253893 0
-4.2215174 0.39718145 0
1.1296706 8.8254845 0
10.25256 6.3703873 0
-7.1565969 2.2055476 0
13.350272 3.9891976 0
-10.247357 0.6124715 0
1.2354053 0.98547719 0
-1.784566 -9.4204001 0
4.147994 12.952319 0
5.1023467 0.014083262 0
1.1939705 4.4433229 0
6.2979168 8.2728415 0
-7.0841099 2.9550177 0
6.9568194 5.1095567 0
-4.1497026 3.0253393 0
-0.056053757 -10.492501 0
-0.16144537 9.4491545 0
0.42470462 -3.5933196 0
-6.835203 -10.618118 0
11.133516 3.4284652 0
-3.710145 -6.250881 0
3.955646 5.3952653 0
7.4333436 8.0911078 0
-3.2929247 1.2347525 0
-0.53464342 5.3571024 0
2.7034711 3.7007911 0
7.4080859 16.592017 0
-6.9998583 -7.6560018 0
-4.9315064 4.8569358 0
7.6529393 9.1078828 0
8.2024885 -3.3456911 0
5.8925316 -2.8417287 0
-9.2104949 10.174785 0
2.9014539 -5.8516237 0
11.22773 6.0495521 0
-2.9891804 -3.675219 0
2.5616041 -5.6586783 0
6.4568952 -4.834609 0
6.0762758 10.156603 0
-1.2402586 14.443026 0
-6.835209 10.618108 0
0.43430427 3.6024859 0
-0.23828504 9.0486196 0
-8.4053922 4.2628789 0
-9.5717003 -8.7077841 0
3.6580899 -4.1028027 0
3.421904 7.9620169 0
4.9154431 7.8837391 0
-5.4534102 -0.19660631 0
11.377152 11.939568 0
-11.377088 -0.63999193 0
4.7891924 2.8409751 0
1.4317601 -2.0521291 0
11.994531 -4.9590347 0
-1.7737644 4.0267293 0