# vtk DataFile Version 4.0
hesp visualization file
ASCII
DATASET UNSTRUCTURED_GRID
POINTS 1250 double
30.181408 1.1225162 4
30.181407 2.2449245 4
30.181407 3.3673861 4
30.181407 4.4898482 4
30.181407 5.6123102 4
30.181407 6.7347723 4
30.181407 7.8572343 4
30.181407 8.9796964 4
30.181407 10.102158 4
30.181407 11.22462 4
30.181407 12.347083 4
30.181407 13.469545 4
30.181407 14.592007 4
30.181407 15.714469 4
30.181407 16.836931 4
30.181407 17.959393 4
30.181407 19.081855 4
30.181407 20.204317 4
30.181407 21.326779 4
30.181407 22.449241 4
30.181407 23.571703 4
30.181407 24.694165 4
30.181407 25.816627 4
30.181407 26.939089 4
30.181408 28.061497 4
31.144924 1.1225155 4
31.144924 2.2449245 4
31.144924 3.3673861 4
31.144924 4.4898482 4
31.144924 5.6123102 4
31.144924 6.7347723 4
31.144924 7.8572343 4
31.144924 8.9796964 4
31.144924 10.102158 4
31.144924 11.22462 4
31.144924 12.347083 4
31.144924 13.469545 4
31.144924 14.592007 4
31.144924 15.714469 4
31.144924 16.836931 4
31.144924 17.959393 4
31.144924 19.081855 4
31.144924 20.204317 4
31.144924 21.326779 4
31.144924 22.449241 4
31.144924 23.571703 4
31.144924 24.694165 4
31.144924 25.816627 4
31.144924 26.939089 4
31.144924 28.061498 4
32.267386 1.1225154 4
32.267386 2.2449245 4
32.267386 3.3673861 4
32.267386 4.4898482 4
32.267386 5.6123102 4
32.267386 6.7347723 4
32.267386 7.8572343 4
32.267386 8.9796964 4
32.267386 10.102158 4
32.267386 11.22462 4
32.267386 12.347083 4
32.267386 13.469545 4
32.267386 14.592007 4
32.267386 15.714469 4
32.267386 16.836931 4
32.267386 17.959393 4
32.267386 19.081855 4
32.267386 20.204317 4
32.267386 21.326779 4
32.267386 22.449241 4
32.267386 23.571703 4
32.267386 24.694165 4
32.267386 25.816627 4
32.267386 26.939089 4
32.267386 28.061498 4
33.389848 1.1225154 4
33.389848 2.2449245 4
33.389848 3.3673861 4
33.389848 4.4898482 4
33.389848 5.6123102 4
33.389848 6.7347723 4
33.389848 7.8572343 4
33.389848 8.9796964 4
33.389848 10.102158 4
33.389848 11.22462 4
33.389848 12.347083 4
33.389848 13.469545 4
33.389848 14.592007 4
33.389848 15.714469 4
33.389848 16.836931 4
33.389848 17.959393 4
33.389848 19.081855 4
33.389848 20.204317 4
33.389848 21.326779 4
33.389848 22.449241 4
33.389848 23.571703 4
33.389848 24.694165 4
33.389848 25.816627 4
33.389848 26.939089 4
33.389848 28.061498 4
34.51231 1.1225154 4
34.51231 2.2449245 4
34.51231 3.3673861 4
34.51231 4.4898482 4
34.51231 5.6123102 4
34.51231 6.7347723 4
34.51231 7.8572343 4
34.51231 8.9796964 4
34.51231 10.102158 4
34.51231 11.22462 4
34.51231 12.347083 4
34.51231 13.469545 4
34.51231 14.592007 4
34.51231 15.714469 4
34.51231 16.836931 4
34.51231 17.959393 4
34.51231 19.081855 4
34.51231 20.204317 4
34.51231 21.326779 4
34.51231 22.449241 4
34.51231 23.571703 4
34.51231 24.694165 4
34.51231 25.816627 4
34.51231 26.939089 4
34.51231 28.061498 4
35.634772 1.1225154 4
35.634772 2.2449245 4
35.634772 3.3673861 4
35.634772 4.4898482 4
35.634772 5.6123102 4
35.634772 6.7347723 4
35.634772 7.8572343 4
35.634772 8.9796964 4
35.634772 10.102158 4
35.634772 11.22462 4
35.634772 12.347083 4
35.634772 13.469545 4
35.634772 14.592007 4
35.634772 15.714469 4
35.634772 16.836931 4
35.634772 17.959393 4
35.634772 19.081855 4
35.634772 20.204317 4
35.634772 21.326779 4
35.634772 22.449241 4
35.634772 23.571703 4
35.634772 24.694165 4
35.634772 25.816627 4
35.634772 26.939089 4
35.634772 28.061498 4
36.757234 1.1225154 4
36.757234 2.2449245 4
36.757234 3.3673861 4
36.757234 4.4898482 4
36.757234 5.6123102 4
36.757234 6.7347723 4
36.757234 7.8572343 4
36.757234 8.9796964 4
36.757234 10.102158 4
36.757234 11.22462 4
36.757234 12.347083 4
36.757234 13.469545 4
36.757234 14.592007 4
36.757234 15.714469 4
36.757234 16.836931 4
36.757234 17.959393 4
36.757234 19.081855 4
36.757234 20.204317 4
36.757234 21.326779 4
36.757234 22.449241 4
36.757234 23.571703 4
36.757234 24.694165 4
36.757234 25.816627 4
36.757234 26.939089 4
36.757234 28.061498 4
37.879696 1.1225154 4
37.879696 2.2449245 4
37.879696 3.3673861 4
37.879696 4.4898482 4
37.879696 5.6123102 4
37.879696 6.7347723 4
37.879696 7.8572343 4
37.879696 8.9796964 4
37.879696 10.102158 4
37.879696 11.22462 4
37.879696 12.347083 4
37.879696 13.469545 4
37.879696 14.592007 4
37.879696 15.714469 4
37.879696 16.836931 4
37.879696 17.959393 4
37.879696 19.081855 4
37.879696 20.204317 4
37.879696 21.326779 4
37.879696 22.449241 4
37.879696 23.571703 4
37.879696 24.694165 4
37.879696 25.816627 4
37.879696 26.939089 4
37.879696 28.061498 4
39.002158 1.1225154 4
39.002158 2.2449245 4
39.002158 3.3673861 4
39.002158 4.4898482 4
39.002158 5.6123102 4
39.002158 6.7347723 4
39.002158 7.8572343 4
39.002158 8.9796964 4
39.002158 10.102158 4
39.002158 11.22462 4
39.002158 12.347083 4
39.002158 13.469545 4
39.002158 14.592007 4
39.002158 15.714469 4
39.002158 16.836931 4
39.002158 17.959393 4
39.002158 19.081855 4
39.002158 20.204317 4
39.002158 21.326779 4
39.002158 22.449241 4
39.002158 23.571703 4
39.002158 24.694165 4
39.002158 25.816627 4
39.002158 26.939089 4
39.002158 28.061498 4
40.12462 1.1225154 4
40.12462 2.2449245 4
40.12462 3.3673861 4
40.12462 4.4898482 4
40.12462 5.6123102 4
40.12462 6.7347723 4
40.12462 7.8572343 4
40.12462 8.9796964 4
40.12462 10.102158 4
40.12462 11.22462 4
40.12462 12.347083 4
40.12462 13.469545 4
40.12462 14.592007 4
40.12462 15.714469 4
40.12462 16.836931 4
40.12462 17.959393 4
40.12462 19.081855 4
40.12462 20.204317 4
40.12462 21.326779 4
40.12462 22.449241 4
40.12462 23.571703 4
40.12462 24.694165 4
40.12462 25.816627 4
40.12462 26.939089 4
40.12462 28.061498 4
41.247083 1.1225154 4
41.247083 2.2449245 4
41.247083 3.3673861 4
41.247083 4.4898482 4
41.247083 5.6123102 4
41.247083 6.7347723 4
41.247083 7.8572343 4
41.247083 8.9796964 4
41.247083 10.102158 4
41.247083 11.22462 4
41.247083 12.347083 4
41.247083 13.469545 4
41.247083 14.592007 4
41.247083 15.714469 4
41.247083 16.836931 4
41.247083 17.959393 4
41.247083 19.081855 4
41.247083 20.204317 4
41.247083 21.326779 4
41.247083 22.449241 4
41.247083 23.571703 4
41.247083 24.694165 4
41.247083 25.816627 4
41.247083 26.939089 4
41.247083 28.061498 4
42.369545 1.1225154 4
42.369545 2.2449245 4
42.369545 3.3673861 4
42.369545 4.4898482 4
42.369545 5.6123102 4
42.369545 6.7347723 4
42.369545 7.8572343 4
42.369545 8.9796964 4
42.369545 10.102158 4
42.369545 11.22462 4
42.369545 12.347083 4
42.369545 13.469545 4
42.369545 14.592007 4
42.369545 15.714469 4
42.369545 16.836931 4
42.369545 17.959393 4
42.369545 19.081855 4
42.369545 20.204317 4
42.369545 21.326779 4
42.369545 22.449241 4
42.369545 23.571703 4
42.369545 24.694165 4
42.369545 25.816627 4
42.369545 26.939089 4
42.369545 28.061498 4
43.492007 1.1225154 4
43.492007 2.2449245 4
43.492007 3.3673861 4
43.492007 4.4898482 4
43.492007 5.6123102 4
43.492007 6.7347723 4
43.492007 7.8572343 4
43.492007 8.9796964 4
43.492007 10.102158 4
43.492007 11.22462 4
43.492007 12.347083 4
43.492007 13.469545 4
43.492007 14.592007 4
43.492007 15.714469 4
43.492007 16.836931 4
43.492007 17.959393 4
43.492007 19.081855 4
43.492007 20.204317 4
43.492007 21.326779 4
43.492007 22.449241 4
43.492007 23.571703 4
43.492007 24.694165 4
43.492007 25.816627 4
43.492007 26.939089 4
43.492007 28.061498 4
44.614469 1.1225154 4
44.614469 2.2449245 4
44.614469 3.3673861 4
44.614469 4.4898482 4
44.614469 5.6123102 4
44.614469 6.7347723 4
44.614469 7.8572343 4
44.614469 8.9796964 4
44.614469 10.102158 4
44.614469 11.22462 4
44.614469 12.347083 4
44.614469 13.469545 4
44.614469 14.592007 4
44.614469 15.714469 4
44.614469 16.836931 4
44.614469 17.959393 4
44.614469 19.081855 4
44.614469 20.204317 4
44.614469 21.326779 4
44.614469 22.449241 4
44.614469 23.571703 4
44.614469 24.694165 4
44.614469 25.816627 4
44.614469 26.939089 4
44.614469 28.061498 4
45.736931 1.1225154 4
45.736931 2.2449245 4
45.736931 3.3673861 4
45.736931 4.4898482 4
45.736931 5.6123102 4
45.736931 6.7347723 4
45.736931 7.8572343 4
45.736931 8.9796964 4
45.736931 10.102158 4
45.736931 11.22462 4
45.736931 12.347083 4
45.736931 13.469545 4
45.736931 14.592007 4
45.736931 15.714469 4
45.736931 16.836931 4
45.736931 17.959393 4
45.736931 19.081855 4
45.736931 20.204317 4
45.736931 21.326779 4
45.736931 22.449241 4
45.736931 23.571703 4
45.736931 24.694165 4
45.736931 25.816627 4
45.736931 26.939089 4
45.736931 28.061498 4
46.859393 1.1225154 4
46.859393 2.2449245 4
46.859393 3.3673861 4
46.859393 4.4898482 4
46.859393 5.6123102 4
46.859393 6.7347723 4
46.859393 7.8572343 4
46.859393 8.9796964 4
46.859393 10.102158 4
46.859393 11.22462 4
46.859393 12.347083 4
46.859393 13.469545 4
46.859393 14.592007 4
46.859393 15.714469 4
46.859393 16.836931 4
46.859393 17.959393 4
46.859393 19.081855 4
46.859393 20.204317 4
46.859393 21.326779 4
46.859393 22.449241 4
46.859393 23.571703 4
46.859393 24.694165 4
46.859393 25.816627 4
46.859393 26.939089 4
46.859393 28.061498 4
47.981855 1.1225154 4
47.981855 2.2449245 4
47.981855 3.3673861 4
47.981855 4.4898482 4
47.981855 5.6123102 4
47.981855 6.7347723 4
47.981855 7.8572343 4
47.981855 8.9796964 4
47.981855 10.102158 4
47.981855 11.22462 4
47.981855 12.347083 4
47.981855 13.469545 4
47.981855 14.592007 4
47.981855 15.714469 4
47.981855 16.836931 4
47.981855 17.959393 4
47.981855 19.081855 4
47.981855 20.204317 4
47.981855 21.326779 4
47.981855 22.449241 4
47.981855 23.571703 4
47.981855 24.694165 4
47.981855 25.816627 4
47.981855 26.939089 4
47.981855 28.061498 4
49.104317 1.1225154 4
49.104317 2.2449245 4
49.104317 3.3673861 4
49.104317 4.4898482 4
49.104317 5.6123102 4
49.104317 6.7347723 4
49.104317 7.8572343 4
49.104317 8.9796964 4
49.104317 10.102158 4
49.104317 11.22462 4
49.104317 12.347083 4
49.104317 13.469545 4
49.104317 14.592007 4
49.104317 15.714469 4
49.104317 16.836931 4
49.104317 17.959393 4
49.104317 19.081855 4
49.104317 20.204317 4
49.104317 21.326779 4
49.104317 22.449241 4
49.104317 23.571703 4
49.104317 24.694165 4
49.104317 25.816627 4
49.104317 26.939089 4
49.104317 28.061498 4
50.226779 1.1225154 4
50.226779 2.2449245 4
50.226779 3.3673861 4
[...]
POINT_DATA 1250
SCALARS m double
LOOKUP_TABLE default
1
1
1
1
1
1
1
1
1
1
1
1
1
1
1
1
1
1
1
1
1
1
1
1
1
1
1
1
1
1
1
1
1
1
1
1
1
1
1
1
1
1
1
1
1
1
1
1
1
1
1
1
1
1
1
1
1
1
1
1
1
1
1
1
1
1
1
1
1
1
1
1
1
1
1
1
1
1
1
1
1
1
1
1
1
1
1
1
1
1
1
1
1
1
1
1
1
1
1
1
1
1
1
1
1
1
1
1
1
1
1
1
1
1
1
1
1
1
1
1
1
1
1
1
1
1
1
1
1
1
1
1
1
1
1
1
1
1
1
1
1
1
1
1
1
1
1
1
1
1
1
1
1
1
1
1
1
1
1
1
1
1
1
1
1
1
1
1
1
1
1
1
1
1
1
1
1
1
1
1
1
1
1
1
1
1
1
1
1
1
1
1
1
1
1
1
1
1
1
1
1
1
1
1
1
1
1
1
1
1
1
1
1
1
1
1
1
1
1
1
1
1
1
1
1
1
1
1
1
1
1
1
1
1
1
1
1
1
1
1
1
1
1
1
1
1
1
1
1
1
1
1
1
1
1
1
1
1
1
1
1
1
1
1
1
1
1
1
1
1
1
1
1
1
1
1
1
1
1
1
1
1
1
1
1
1
1
1
1
1
1
1
1
1
1
1
1
1
1
1
1
1
1
1
1
1
1
1
1
1
1
1
1
1
1
1
1
1
1
1
1
1
1
1
1
1
1
1
1
1
1
1
1
1
1
1
1
1
1
1
1
1
1
1
1
1
1
1
1
1
1
1
1
1
1
1
1
1
1
1
1
1
1
1
1
1
1
1
1
1
1
1
1
1
1
1
1
1
1
1
1
1
1
1
1
1
1
1
1
1
1
1
1
1
1
1
1
1
1
1
1
1
1
1
1
1
1
1
1
1
1
1
1
1
1
1
1
1
1
1
1
1
1
1
1
1
1
1
1
1
1
1
1
1
1
1
1
1
1
1
1
1
1
1
1
1
1
1
1
1
1
1
1
1
1
1
1
1
1
1
1
1
1
1
1
1
1
1
1
1
1
1
1
1
1
1
1
1
1
1
1
1
1
1
1
1
1
1
1
1
1
1
1
1
1
1
1
1
1
1
1
1
1
1
1
1
1
1
1
1
1
1
1
1
1
1
1
1
1
1
1
1
1
1
1
1
1
1
1
1
1
1
1
1
1
1
1
1
1
1
1
1
1
1
1
1
1
1
1
1
1
1
1
1
1
1
1
1
1
1
1
1
1
1
1
1
1
1
1
1
1
1
1
1
1
1
1
1
1
1
1
1
1
1
1
1
1
1
1
1
1
1
1
1
1
1
1
1
1
1
1
1
1
1
1
1
1
1
1
1
1
1
1
1
1
1
1
1
1
1
1
1
1
1
1
1
1
1
1
1
1
1
1
1
1
1
1
1
1
1
1
1
1
1
1
1
1
1
1
1
1
1
1
1
1
1
1
1
1
1
1
1
1
1
1
1
1
1
1
1
1
1
1
1
1
1
1
1
1
1
1
1
1
1
1
1
1
1
1
1
1
1
1
1
1
1
1
1
1
1
1
1
1
1
1
1
1
1
1
1
1
1
1
1
1
1
1
1
1
1
1
1
1
1
1
1
1
1
1
1
1
1
1
1
1
1
1
1
1
1
1
1
1
1
1
1
1
1
1
1
1
1
1
1
1
1
1
1
1
1
1
1
1
1
1
1
1
1
1
1
1
1
1
1
1
1
1
1
1
1
1
1
1
1
1
1
1
1
1
1
1
1
1
1
1
1
1
1
1
1
1
1
1
1
1
1
1
1
1
1
1
1
1
1
1
1
1
1
1
1
1
1
1
1
1
1
1
1
1
1
1
1
1
1
1
1
1
1
1
1
1
1
1
1
1
1
1
1
1
1
1
1
1
1
1
1
1
1
1
1
1
1
1
1
1
1
1
1
1
1
1
1
1
1
1
1
1
1
1
1
1
1
1
1
1
1
1
1
1
1
1
1
1
1
1
1
1
1
1
1
1
1
1
1
1
1
1
1
1
1
1
1
1
1
1
1
1
1
1
1
1
1
1
1
1
1
1
1
1
1
1
1
1
1
1
1
1
1
1
1
1
1
1
1
1
1
1
1
1
1
1
1
1
1
1
1
1
1
1
1
1
1
1
1
1
1
1
1
1
1
1
1
1
1
1
1
1
1
1
1
1
1
1
1
1
1
1
1
1
1
1
1
1
1
1
1
1
1
1
1
1
1
1
1
1
1
1
1
1
1
1
1
1
1
1
1
1
1
1
1
1
1
1
1
1
1
1
1
1
1
1
1
1
1
1
1
1
1
1
1
1
1
1
1
1
1
1
1
1
1
1
1
1
1
1
1
1
1
1
1
1
1
1
1
1
1
1
1
1
1
1
1
1
1
1
1
1
1
1
1
1
1
1
1
1
1
1
1
1
1
1
1
1
1
1
1
1
1
1
1
1
1
1
1
1
1
1
1
1
1
1
1
1
1
1
1
1
1
1
1
1
1
1
1
1
1
1
1
1
1
1
1
1
1
1
1
1
1
1
1
1
1
1
1
1
1
1
1
1
1
1
1
1
1
1
1
1
1
1
1
1
1
1
1
1
1
1
1
1
1
1
1
1
1
1
1
1
1
1
1
1
1
1
1
1
1
1
1
1
1
1
1
1
1
1
1
1
1
1
1
1
1
1
1
1
1
1
1
1
1
1
1
1
1
1
1
1
1
1
1
1
1
1
1
1
1
1
1
1
1
1
1
1
1
1
1
1
1
1
1
1
1
1
1
1
1
1
1
1
1
VECTORS v double
10.042265 0.0011125694 0
10.042276 9.1725962e-06 0
10.042277 -1.6307641e-09 0
10.042277 -4.7317664e-12 0
10.042277 1.1742365e-13 0
10.042277 3.8983994e-14 0
10.042277 -1.9495245e-14 0
10.042277 -7.8294101e-14 0
10.042277 7.4890348e-16 0
10.042277 -3.9632771e-14 0
10.042277 -7.7986616e-14 0
10.042277 -1.1633931e-13 0
10.042277 -1.565929e-13 0
10.042277 1.1693648e-13 0
10.042277 7.7989035e-14 0
10.042277 7.8642901e-14 0
10.042277 -6.6704745e-16 0
10.042277 -2.7495434e-18 0
10.042277 2.5955655e-17 0
10.042277 -7.7354107e-14 0
10.042277 -7.8953453e-14 0
10.042277 4.494801e-12 0
10.042277 1.630958e-09 0
10.042276 -9.172596e-06 0
10.042265 -0.0011125694 0
-10.000095 0.00097739926 0
-10.000103 6.8089619e-06 0
-10.000103 -1.0925762e-09 0
-10.000103 -2.7213567e-12 0
-10.000103 2.6227761e-16 0
-10.000103 -3.9253939e-18 0
-10.000103 -8.286213e-19 0
-10.000103 -2.7777459e-16 0
-10.000103 6.5411742e-16 0
-10.000103 -5.6294246e-16 0
-10.000103 -9.0761269e-18 0
-10.000103 5.460871e-16 0
-10.000103 -5.5896386e-16 0
-10.000103 -2.4281573e-17 0
-10.000103 1.0952161e-17 0
-10.000103 5.8185203e-16 0
-10.000103 -5.829182e-16 0
-10.000103 -2.0644896e-18 0
-10.000103 2.2582208e-17 0
-10.000103 5.441077e-16 0
-10.000103 -7.1254906e-16 0
-10.000103 2.7212193e-12 0
-10.000103 1.0925762e-09 0
-10.000103 -6.8089619e-06 0
-10.000095 -0.00097739926 0
-10.000001 0.00097073886 0
-10.000001 6.5987924e-06 0
-10.000001 -1.0594375e-09 0
-10.000001 -2.5203733e-12 0
-10.000001 2.4471673e-16 0
-10.000001 -3.9125066e-18 0
-10.000001 -8.0587645e-19 0
-10.000001 -2.772406e-16 0
-10.000001 6.5246945e-16 0
-10.000001 -5.6151124e-16 0
-10.000001 -9.1819038e-18 0
-10.000001 5.4443277e-16 0
-10.000001 -5.5785276e-16 0
-10.000001 -2.3897986e-17 0
-10.000001 1.0987904e-17 0
-10.000001 5.8045573e-16 0
-10.000001 -5.8145778e-16 0
-10.000001 -2.0081275e-18 0
-10.000001 2.2523571e-17 0
-10.000001 5.4262596e-16 0
-10.000001 -6.9348101e-16 0
-10.000001 2.5202435e-12 0
-10.000001 1.0594375e-09 0
-10.000001 -6.5987924e-06 0
-10.000001 -0.00097073886 0
-10 0.00097061837 0
-10 6.5988003e-06 0
-10 -1.0594076e-09 0
-10 -2.5203778e-12 0
-10 2.452472e-16 0
-10 -3.8508775e-18 0
-10 -8.3935079e-19 0
-10 -2.7758493e-16 0
-10 6.5243536e-16 0
-10 -5.6159628e-16 0
-10 -9.45823e-18 0
-10 5.4394287e-16 0
-10 -5.5852065e-16 0
-10 -2.3351683e-17 0
-10 1.1255827e-17 0
-10 5.807041e-16 0
-10 -5.8151767e-16 0
-10 -2.0068921e-18 0
-10 2.2562329e-17 0
-10 5.4241482e-16 0
-10 -6.9383199e-16 0
-10 2.5202476e-12 0
-10 1.0594075e-09 0
-10 -6.5988003e-06 0
-10 -0.00097061837 0
-10 0.00097061837 0
-10 6.5988003e-06 0
-10 -1.0594076e-09 0
-10 -2.5203776e-12 0
-10 2.4509954e-16 0
-10 -3.9012427e-18 0
-10 -8.1108762e-19 0
-10 -2.7751365e-16 0
-10 6.5238941e-16 0
-10 -5.6155384e-16 0
-10 -9.3980086e-18 0
-10 5.4397044e-16 0
-10 -5.5827288e-16 0
-10 -2.3505455e-17 0
-10 1.116041e-17 0
-10 5.8064286e-16 0
-10 -5.8141466e-16 0
-10 -2.0074009e-18 0
-10 2.2470563e-17 0
-10 5.4257216e-16 0
-10 -6.9382854e-16 0
-10 2.5202478e-12 0
-10 1.0594075e-09 0
-10 -6.5988003e-06 0
-10 -0.00097061837 0
-10 0.00097061837 0
-10 6.5988003e-06 0
-10 -1.0594076e-09 0
-10 -2.5203778e-12 0
-10 2.4512178e-16 0
-10 -3.8739764e-18 0
-10 -8.2759913e-19 0
-10 -2.7759882e-16 0
-10 6.5236893e-16 0
-10 -5.6147975e-16 0
-10 -9.4598276e-18 0
-10 5.4393477e-16 0
-10 -5.582704e-16 0
-10 -2.3491767e-17 0
-10 1.1222391e-17 0
-10 5.8065414e-16 0
-10 -5.8143838e-16 0
-10 -2.0096177e-18 0
-10 2.2479988e-17 0
-10 5.4256749e-16 0
-10 -6.9380071e-16 0
-10 2.5202479e-12 0
-10 1.0594075e-09 0
-10 -6.5988003e-06 0
-10 -0.00097061837 0
-10 0.00097061837 0
-10 6.5988003e-06 0
-10 -1.0594076e-09 0
-10 -2.5203777e-12 0
-10 2.4509044e-16 0
-10 -3.8654827e-18 0
-10 -8.2900401e-19 0
-10 -2.7742675e-16 0
-10 6.524189e-16 0
-10 -5.6159839e-16 0
-10 -9.4004652e-18 0
-10 5.4402292e-16 0
-10 -5.5827847e-16 0
-10 -2.3510137e-17 0
-10 1.124085e-17 0
-10 5.8063726e-16 0
-10 -5.8143144e-16 0
-10 -2.0069098e-18 0
-10 2.2463972e-17 0
-10 5.4259529e-16 0
-10 -6.9381651e-16 0
-10 2.5202478e-12 0
-10 1.0594075e-09 0
-10 -6.5988003e-06 0
-10 -0.00097061837 0
-10 0.00097061837 0
-10 6.5988003e-06 0
-10 -1.0594076e-09 0
-10 -2.5203777e-12 0
-10 2.4511305e-16 0
-10 -3.8978068e-18 0
-10 -8.306397e-19 0
-10 -2.7743875e-16 0
-10 6.5242234e-16 0
-10 -5.6160202e-16 0
-10 -9.3608333e-18 0
-10 5.440613e-16 0
-10 -5.5835103e-16 0
-10 -2.3489722e-17 0
-10 1.1151204e-17 0
-10 5.80647e-16 0
-10 -5.814339e-16 0
-10 -2.0068745e-18 0
-10 2.2466397e-17 0
-10 5.4258558e-16 0
-10 -6.9383053e-16 0
-10 2.5202478e-12 0
-10 1.0594075e-09 0
-10 -6.5988003e-06 0
-10 -0.00097061837 0
-10 0.00097061837 0
-10 6.5988003e-06 0
-10 -1.0594076e-09 0
-10 -2.5203778e-12 0
-10 2.451519e-16 0
-10 -3.892696e-18 0
-10 -8.1483583e-19 0
-10 -2.7753643e-16 0
-10 6.5239628e-16 0
-10 -5.6156184e-16 0
-10 -9.4297685e-18 0
-10 5.4393296e-16 0
-10 -5.5833015e-16 0
-10 -2.3464137e-17 0
-10 1.1173716e-17 0
-10 5.8066212e-16 0
-10 -5.8141885e-16 0
-10 -2.0073833e-18 0
-10 2.2474408e-17 0
-10 5.4255295e-16 0
-10 -6.9385937e-16 0
-10 2.5202479e-12 0
-10 1.0594075e-09 0
-10 -6.5988003e-06 0
-10 -0.00097061837 0
-10 0.00097061837 0
-10 6.5988003e-06 0
-10 -1.0594076e-09 0
-10 -2.5203776e-12 0
-10 2.4507909e-16 0
-10 -3.9045381e-18 0
-10 -8.2725724e-19 0
-10 -2.7755768e-16 0
-10 6.5241543e-16 0
-10 -5.6145178e-16 0
-10 -9.3934781e-18 0
-10 5.4398483e-16 0
-10 -5.5820638e-16 0
-10 -2.3531026e-17 0
-10 1.1138453e-17 0
-10 5.8062767e-16 0
-10 -5.814297e-16 0
-10 -2.0069098e-18 0
-10 2.2462237e-17 0
-10 5.4260488e-16 0
-10 -6.9375748e-16 0
-10 2.5202477e-12 0
-10 1.0594075e-09 0
-10 -6.5988003e-06 0
-10 -0.00097061837 0
-10 0.00097061837 0
-10 6.5988003e-06 0
-10 -1.0594076e-09 0
-10 -2.5203776e-12 0
-10 2.4507524e-16 0
-10 -3.8788066e-18 0
-10 -8.2405849e-19 0
-10 -2.7743277e-16 0
-10 6.5236203e-16 0
-10 -5.6161443e-16 0
-10 -9.4453573e-18 0
-10 5.4400265e-16 0
-10 -5.5826813e-16 0
-10 -2.3533395e-17 0
-10 1.1208742e-17 0
-10 5.8063492e-16 0
-10 -5.8143452e-16 0
-10 -2.0096144e-18 0
-10 2.2476107e-17 0
-10 5.4258672e-16 0
-10 -6.9380429e-16 0
-10 2.5202478e-12 0
-10 1.0594075e-09 0
-10 -6.5988003e-06 0
-10 -0.00097061837 0
-10 0.00097061837 0
-10 6.5988003e-06 0
-10 -1.0594076e-09 0
-10 -2.5203777e-12 0
-10 2.4510814e-16 0
-10 -3.8596334e-18 0
-10 -8.128103e-19 0
-10 -2.7752488e-16 0
-10 6.5239288e-16 0
-10 -5.6155815e-16 0
-10 -9.4222466e-18 0
-10 5.4394276e-16 0
-10 -5.5825891e-16 0
-10 -2.3484711e-17 0
-10 1.1262711e-17 0
-10 5.8065236e-16 0
-10 -5.814164e-16 0
-10 -2.0074009e-18 0
-10 2.2472298e-17 0
-10 5.4256267e-16 0
-10 -6.9380247e-16 0
-10 2.5202479e-12 0
-10 1.0594075e-09 0
-10 -6.5988003e-06 0
-10 -0.00097061837 0
-10 0.00097061837 0
-10 6.5988003e-06 0
-10 -1.0594076e-09 0
-10 -2.5203777e-12 0
-10 2.4511712e-16 0
-10 -3.8994498e-18 0
-10 -8.3067717e-19 0
-10 -2.7758146e-16 0
-10 6.5242235e-16 0
-10 -5.6145923e-16 0
-10 -9.407923e-18 0
-10 5.4396542e-16 0
-10 -5.5830295e-16 0
-10 -2.3489594e-17 0
-10 1.1151744e-17 0
-10 5.8064685e-16 0
-10 -5.8143354e-16 0
-10 -2.0068921e-18 0
-10 2.2466052e-17 0
-10 5.4258569e-16 0
-10 -6.938372e-16 0
-10 2.5202479e-12 0
-10 1.0594075e-09 0
-10 -6.5988003e-06 0
-10 -0.00097061837 0
-10 0.00097061837 0
-10 6.5988003e-06 0
-10 -1.0594076e-09 0
-10 -2.5203776e-12 0
-10 2.4511457e-16 0
-10 -3.8994257e-18 0
-10 -8.3068921e-19 0
-10 -2.7743839e-16 0
-10 6.5242235e-16 0
-10 -5.6160237e-16 0
-10 -9.4079712e-18 0
-10 5.4401305e-16 0
-10 -5.5830304e-16 0
-10 -2.3489521e-17 0
-10 1.1151792e-17 0
-10 5.806469e-16 0
-10 -5.8143354e-16 0
-10 -2.0068921e-18 0
-10 2.2466052e-17 0
-10 5.4258564e-16 0
-10 -6.9383724e-16 0
-10 2.5202479e-12 0
-10 1.0594075e-09 0
-10 -6.5988003e-06 0
-10 -0.00097061837 0
-10 0.00097061837 0
-10 6.5988003e-06 0
-10 -1.0594076e-09 0
-10 -2.5203777e-12 0
-10 2.4511933e-16 0
-10 -3.8739282e-18 0
-10 -8.2762322e-19 0
-10 -2.7745581e-16 0
-10 6.5236893e-16 0
-10 -5.6162292e-16 0
-10 -9.4599239e-18 0
-10 5.4398233e-16 0
-10 -5.58366e-16 0
-10 -2.3491622e-17 0
-10 1.1222487e-17 0
-10 5.8065423e-16 0
-10 -5.8143838e-16 0
-10 -2.0096177e-18 0
-10 2.2479988e-17 0
-10 5.4256739e-16 0
-10 -6.9384591e-16 0
-10 2.5202479e-12 0
-10 1.0594075e-09 0
-10 -6.5988003e-06 0
-10 -0.00097061837 0
-10 0.00097061837 0
-10 6.5988003e-06 0
-10 -1.0594076e-09 0
-10 -2.5203778e-12 0
-10 2.4513282e-16 0
-10 -3.8606037e-18 0
-10 -8.1310111e-19 0
-10 -2.7752516e-16 0
-10 6.5239281e-16 0
-10 -5.615575e-16 0
-10 -9.4228297e-18 0
-10 5.4394337e-16 0
-10 -5.5825816e-16 0
-10 -2.3484953e-17 0
-10 1.1262187e-17 0
-10 5.8065258e-16 0
-10 -5.8141711e-16 0
-10 -2.0073833e-18 0
-10 2.2472673e-17 0
-10 5.4256249e-16 0
-10 -6.9380039e-16 0
-10 2.5202479e-12 0
-10 1.0594075e-09 0
-10 -6.5988003e-06 0
-10 -0.00097061837 0
-10 0.00097061837 0
-10 6.5988003e-06 0
-10 -1.0594076e-09 0
-10 -2.5203776e-12 0
-10 2.4507743e-16 0
-10 -3.904514e-18 0
-10 -8.2726928e-19 0
-10 -2.7755772e-16 0
-10 6.5241543e-16 0
-10 -5.6145181e-16 0
-10 -9.3935263e-18 0
-10 5.4398475e-16 0
-10 -5.5825332e-16 0
-10 -2.3530954e-17 0
-10 1.1138501e-17 0
-10 5.8062772e-16 0
-10 -5.814297e-16 0
-10 -2.0069098e-18 0
-10 2.2462237e-17 0
-10 5.4260483e-16 0
-10 -6.938009e-16 0
-10 2.5202477e-12 0
-10 1.0594075e-09 0
-10 -6.5988003e-06 0
-10 -0.00097061837 0
-10 0.00097061837 0
-10 6.5988003e-06 0
-10 -1.0594076e-09 0
-10 -2.5203777e-12 0
-10 2.4511117e-16 0
-10 -3.897855e-18 0
-10 -8.3061561e-19 0
-10 -2.7743866e-16 0
-10 6.5242234e-16 0
-10 -5.6160197e-16 0
-10 -9.4084419e-18 0
-10 5.4401374e-16 0
-10 -5.5830227e-16 0
-10 -2.3489867e-17 0
-10 1.1151108e-17 0
-10 5.806469e-16 0
-10 -5.814339e-16 0
-10 -2.0068745e-18 0
-10 2.2466397e-17 0
-10 5.4258568e-16 0
-10 -6.938287e-16 0
-10 2.5202478e-12 0
-10 1.0594075e-09 0
-10 -6.5988003e-06 0
-10 -0.00097061837 0
-10 0.00097061837 0
-10 6.5988003e-06 0
-10 -1.0594076e-09 0
-10 -2.5203777e-12 0
-10 2.4511118e-16 0
-10 -3.8975992e-18 0
-10 -8.3072669e-19 0
-10 -2.7743798e-16 0
-10 6.5242237e-16 0
-10 -5.616027e-16 0
-10 -9.4073559e-18 0
-10 5.4401258e-16 0
-10 -5.5835037e-16 0
-10 -2.3489393e-17 0
-10 1.1152331e-17 0
-10 5.8064675e-16 0
-10 -5.8143317e-16 0
-10 -2.0069098e-18 0
-10 2.2465707e-17 0
-10 5.425858e-16 0
-10 -6.9383208e-16 0
-10 2.5202478e-12 0
-10 1.0594075e-09 0
-10 -6.5988003e-06 0
-10 -0.00097061837 0
-10 0.00097061837 0
-10 6.5988003e-06 0
-10 -1.0594076e-09 0
-10 -2.5203777e-12 0
-10 2.4505863e-16 0
-10 -3.8647727e-18 0
-10 -8.1206308e-19 0
-10 -2.7749519e-16 0
-10 6.5240911e-16 0
-10 -5.6159257e-16 0
-10 -9.4395378e-18 0
-10 5.43991e-16 0
-10 -5.5829613e-16 0
-10 -2.3540962e-17 0
-10 1.1200231e-17 0
-10 5.8060077e-16 0
-10 -5.8140373e-16 0
-10 -2.0101231e-18 0
-10 2.2470578e-17 0
-10 5.4253342e-16 0
-10 -6.9376701e-16 0
-10 2.5202478e-12 0
-10 1.0594075e-09 0
-10 -6.5988003e-06 0
-10 -0.00097061837 0
-10 0.00097061837 0
-10 6.5988003e-06 0
-10 -1.0594076e-09 0
-10 -2.5203777e-12 0
-10 2.4508573e-16 0
-10 -3.8523713e-18 0
-10 -8.3253234e-19 0
-10 -2.7759408e-16 0
-10 6.5242582e-16 0
-10 -5.6160693e-16 0
-10 -9.4153437e-18 0
-10 5.4400199e-16 0
-10 -5.583759e-16 0
-10 -2.3468054e-17 0
-10 1.1254574e-17 0
-10 5.8061004e-16 0
-10 -5.8143527e-16 0
-10 -2.0068921e-18 0
-10 2.2467786e-17 0
-10 5.4243168e-16 0
-10 -6.9381252e-16 0
-10 2.5202479e-12 0
-10 1.0594075e-09 0
-10 -6.5988003e-06 0
-10 -0.00097061837 0
-10 0.00097061837 0
-10 6.5988003e-06 0
-10 -1.0594076e-09 0
-10 -2.5203776e-12 0
-10 2.4526314e-16 0
-10 -3.8428602e-18 0
-10 -8.4246675e-19 0
-10 -2.7758323e-16 0
-10 6.5241724e-16 0
-10 -5.6164734e-16 0
-10 -9.47948e-18 0
-10 5.4391605e-16 0
-10 -5.5858659e-16 0
-10 -2.3346511e-17 0
-10 1.1276433e-17 0
-10 5.8075294e-16 0
-10 -5.8146543e-16 0
-10 -2.0080203e-18 0
-10 2.2519716e-17 0
-10 5.4244313e-16 0
-10 -6.9386726e-16 0
-10 2.5202475e-12 0
-10 1.0594075e-09 0
-10 -6.5988003e-06 0
-10 -0.00097061837 0
-10 0.00097061839 0
-10 6.5988003e-06 0
-10 -1.0594082e-09 0
-10 -2.5203779e-12 0
-10 2.4599336e-16 0
-10 -3.6694004e-18 0
-10 -9.1677032e-19 0
-10 -2.7815205e-16 0
-10 6.5239212e-16 0
-10 -5.6176866e-16 0
-10 -9.9045933e-18 0
-10 5.4330773e-16 0
-10 -5.5958791e-16 0
-10 -2.2684787e-17 0
-10 1.1752238e-17 0
-10 5.8114983e-16 0
-10 -5.8163428e-16 0
-10 -2.0082748e-18 0
-10 2.2693055e-17 0
-10 5.4195804e-16 0
-10 -6.9420229e-16 0
-10 2.5202468e-12 0
-10 1.0594082e-09 0
-10 -6.5988003e-06 0
-10 -0.00097061839 0
-10.000007 0.00097062101 0
-10.000007 6.5991281e-06 0
-10.000007 -1.0594289e-09 0
-10.000007 -2.5204667e-12 0
-10.000007 2.4618153e-16 0
-10.000007 -3.6400822e-18 0
-10.000007 -9.3104047e-19 0
-10.000007 -2.7831184e-16 0
-10.000007 6.5235481e-16 0
-10.000007 -5.6181178e-16 0
-10.000007 -1.0018329e-17 0
-10.000007 5.4311819e-16 0
-10.000007 -5.5984629e-16 0
-10.000007 -2.2531988e-17 0
-10.000007 1.1896914e-17 0
-10.000007 5.8126194e-16 0
-10.000007 -5.8168438e-16 0
-10.000007 -2.008157e-18 0
-10.000007 2.2739098e-17 0
-10.000007 5.4183604e-16 0
-10.000007 -6.9435047e-16 0
-10.000007 2.5203347e-12 0
-10.000007 1.0594289e-09 0
-10.000007 -6.5991281e-06 0
-10.000007 -0.00097062101 0
-10.000917 0.00091703837 0
-10.000971 6.6065589e-06 0
-10.000971 -1.0216143e-09 0
-10.000971 -2.5232184e-12 0
-10.000971 2.3927026e-16 0
-10.000971 -3.3877881e-18 0
-10.000971 -9.9867712e-19 0
-10.000971 -2.716447e-16 0
-10.000971 6.3576471e-16 0
-10.000971 -5.4769356e-16 0
-10.000971 -1.0166421e-17 0
-10.000971 5.288416e-16 0
-10.000971 -5.4647781e-16 0
-10.000971 -2.1478731e-17 0
-10.000971 1.206425e-17 0
-10.000971 5.6685339e-16 0
-10.000971 -5.6701293e-16 0
-10.000971 -2.0082616e-18 0
-10.000971 2.2310394e-17 0
-10.000971 5.2772508e-16 0
-10.000971 -6.7579561e-16 0
-10.000971 2.5230589e-12 0
-10.000971 1.0216143e-09 0
-10.000971 -6.6065589e-06 0
-10.000917 -0.00091703837 0
-10.042265 0.0011125694 0
-10.042276 9.1725962e-06 0
-10.042277 -1.6307641e-09 0
-10.042277 -4.7317661e-12 0
-10.042277 1.1742342e-13 0
-10.042277 3.8983967e-14 0
-10.042277 -1.9495245e-14 0
-10.042277 -7.829395e-14 0
-10.042277 7.4883082e-16 0
-10.042277 -3.9632711e-14 0
-10.042277 -7.7986562e-14 0
-10.042277 -1.1633905e-13 0
-10.042277 -1.5659268e-13 0
-10.042277 1.1693621e-13 0
-10.042277 7.7988943e-14 0
-10.042277 7.864274e-14 0
-10.042277 -6.6707801e-16 0
-10.042277 -2.785665e-18 0
-10.042277 2.5910341e-17 0
-10.042277 -7.7353923e-14 0
-10.042277 -7.8953371e-14 0
-10.042277 4.4948012e-12 0
-10.042277 1.630958e-09 0
-10.042276 -9.172596e-06 0
-10.042265 -0.0011125694 0
10.000095 0.00097739926 0
10.000103 6.8089619e-06 0
10.000103 -1.0925762e-09 0
10.000103 -2.7213565e-12 0
10.000103 2.6159456e-16 0
10.000103 -4.0773325e-18 0
10.000103 -8.0450793e-19 0
10.000103 -2.7730725e-16 0
10.000103 6.5417374e-16 0
10.000103 -5.6283133e-16 0
10.000103 -8.6764927e-18 0
10.000103 5.4683751e-16 0
10.000103 -5.5803572e-16 0
10.000103 -2.4967195e-17 0
10.000103 1.0492395e-17 0
10.000103 5.8153218e-16 0
10.000103 -5.8279275e-16 0
10.000103 -2.0647341e-18 0
10.000103 2.2449934e-17 0
10.000103 5.4444396e-16 0
10.000103 -7.1201512e-16 0
10.000103 2.7212199e-12 0
10.000103 1.0925762e-09 0
10.000103 -6.8089619e-06 0
10.000095 -0.00097739926 0
10.000001 0.00097073886 0
10.000001 6.5987924e-06 0
10.000001 -1.0594375e-09 0
10.000001 -2.5203735e-12 0
10.000001 2.4428442e-16 0
10.000001 -4.0088999e-18 0
10.000001 -8.1327648e-19 0
10.000001 -2.7691215e-16 0
10.000001 6.5253634e-16 0
10.000001 -5.6148114e-16 0
10.000001 -8.8901716e-18 0
10.000001 5.4501134e-16 0
10.000001 -5.5724747e-16 0
10.000001 -2.4349035e-17 0
10.000001 1.0651457e-17 0
10.000001 5.8028927e-16 0
10.000001 -5.8137622e-16 0
10.000001 -2.0082582e-18 0
10.000001 2.2445211e-17 0
10.000001 5.4280988e-16 0
10.000001 -6.9307787e-16 0
10.000001 2.5202442e-12 0
10.000001 1.0594375e-09 0
10.000001 -6.5987924e-06 0
10.000001 -0.00097073886 0
10 0.00097061837 0
10 6.5988003e-06 0
10 -1.0594076e-09 0
10 -2.5203777e-12 0
10 2.439687e-16 0
10 -4.0890142e-18 0
10 -8.0612633e-19 0
10 -2.766689e-16 0
10 6.5251249e-16 0
10 -5.6141804e-16 0
10 -8.7075586e-18 0
10 5.4531093e-16 0
10 -5.5681348e-16 0
10 -2.4688656e-17 0
10 1.0476919e-17 0
10 5.8013152e-16 0
10 -5.8130275e-16 0
10 -2.0071313e-18 0
10 2.2346832e-17 0
10 5.4299828e-16 0
10 -6.9296135e-16 0
10 2.5202495e-12 0
10 1.0594075e-09 0
10 -6.5988003e-06 0
10 -0.00097061837 0
10 0.00097061837 0
10 6.5988003e-06 0
10 -1.0594076e-09 0
10 -2.5203775e-12 0
10 2.4400416e-16 0
10 -4.0656984e-18 0
10 -7.9485947e-19 0
10 -2.7672603e-16 0
10 6.5251194e-16 0
10 -5.6146606e-16 0
10 -8.7670688e-18 0
10 5.4526603e-16 0
10 -5.5688034e-16 0
10 -2.4670495e-17 0
10 1.052994e-17 0
10 5.8019325e-16 0
10 -5.8123993e-16 0
10 -2.0087729e-18 0
10 2.2343143e-17 0
10 5.4297142e-16 0
10 -6.9295995e-16 0
10 2.5202491e-12 0
10 1.0594075e-09 0
10 -6.5988003e-06 0
10 -0.00097061837 0
10 0.00097061837 0
10 6.5988003e-06 0
10 -1.0594076e-09 0
10 -2.5203776e-12 0
10 2.4404245e-16 0
10 -4.0732759e-18 0
10 -8.2515408e-19 0
10 -2.7674131e-16 0
10 6.5253539e-16 0
10 -5.6146789e-16 0
10 -8.7576487e-18 0
10 5.4524073e-16 0
10 -5.5690666e-16 0
10 -2.4604728e-17 0
10 1.0588587e-17 0
10 5.8012433e-16 0
10 -5.8135453e-16 0
10 -2.0071445e-18 0
10 2.2387354e-17 0
10 5.4291523e-16 0
10 -6.9293951e-16 0
10 2.520249e-12 0
10 1.0594075e-09 0
10 -6.5988003e-06 0
10 -0.00097061837 0
10 0.00097061837 0
10 6.5988003e-06 0
10 -1.0594076e-09 0
10 -2.5203776e-12 0
10 2.4404868e-16 0
10 -4.0435938e-18 0
10 -8.2432712e-19 0
10 -2.7669125e-16 0
10 6.5249533e-16 0
10 -5.6147138e-16 0
10 -8.7804095e-18 0
10 5.4523695e-16 0
10 -5.5695099e-16 0
10 -2.4645765e-17 0
10 1.0521553e-17 0