# vtk DataFile Version 4.0
hesp visualization file
ASCII
DATASET UNSTRUCTURED_GRID
POINTS 1250 double
30.122016 1.1943383 4
30.1271 2.2466875 4
30.127103 3.3673856 4
30.127103 4.4898482 4
30.127103 5.6123102 4
30.127103 6.7347723 4
30.127103 7.8572343 4
30.127103 8.9796964 4
30.127103 10.102158 4
30.127103 11.22462 4
30.127103 12.347083 4
30.127103 13.469545 4
30.127103 14.592007 4
30.127103 15.714469 4
30.127103 16.836931 4
30.127103 17.959393 4
30.127103 19.081855 4
30.127103 20.204317 4
30.127103 21.326779 4
30.127103 22.449241 4
30.127103 23.571703 4
30.127103 24.694165 4
30.127103 25.816628 4
30.1271 26.937326 4
30.122016 27.989675 4
31.241102 1.0305881 4
31.199669 2.2417482 4
31.199612 3.367387 4
31.199612 4.4898482 4
31.199612 5.6123102 4
31.199612 6.7347723 4
31.199612 7.8572343 4
31.199612 8.9796964 4
31.199612 10.102158 4
31.199612 11.22462 4
31.199612 12.347083 4
31.199612 13.469545 4
31.199612 14.592007 4
31.199612 15.714469 4
31.199612 16.836931 4
31.199612 17.959393 4
31.199612 19.081855 4
31.199612 20.204317 4
31.199612 21.326779 4
31.199612 22.449241 4
31.199612 23.571703 4
31.199612 24.694165 4
31.199612 25.816626 4
31.199669 26.942265 4
31.241102 28.153425 4
31.411736 1.2097224 4
31.453761 2.2479986 4
31.453818 3.3673854 4
31.453818 4.4898482 4
31.453818 5.6123102 4
31.453818 6.7347723 4
31.453818 7.8572343 4
31.453818 8.9796964 4
31.453818 10.102158 4
31.453818 11.22462 4
31.453818 12.347083 4
31.453818 13.469545 4
31.453818 14.592007 4
31.453818 15.714469 4
31.453818 16.836931 4
31.453818 17.959393 4
31.453818 19.081855 4
31.453818 20.204317 4
31.453818 21.326779 4
31.453818 22.449241 4
31.453818 23.571703 4
31.453818 24.694165 4
31.453818 25.816628 4
31.453761 26.936015 4
31.411736 27.974291 4
32.542198 1.0435845 4
32.526283 2.2427214 4
32.52627 3.3673866 4
32.52627 4.4898482 4
32.52627 5.6123102 4
32.52627 6.7347723 4
32.52627 7.8572343 4
32.52627 8.9796964 4
32.52627 10.102158 4
32.52627 11.22462 4
32.52627 12.347083 4
32.52627 13.469545 4
32.52627 14.592007 4
32.52627 15.714469 4
32.52627 16.836931 4
32.52627 17.959393 4
32.52627 19.081855 4
32.52627 20.204317 4
32.52627 21.326779 4
32.52627 22.449241 4
32.52627 23.571703 4
32.52627 24.694165 4
32.52627 25.816627 4
32.526283 26.941292 4
32.542198 28.140429 4
32.759011 1.1476972 4
32.780442 2.2457459 4
32.780458 3.367386 4
32.780458 4.4898482 4
32.780458 5.6123102 4
32.780458 6.7347723 4
32.780458 7.8572343 4
32.780458 8.9796964 4
32.780458 10.102158 4
32.780458 11.22462 4
32.780458 12.347083 4
32.780458 13.469545 4
32.780458 14.592007 4
32.780458 15.714469 4
32.780458 16.836931 4
32.780458 17.959393 4
32.780458 19.081855 4
32.780458 20.204317 4
32.780458 21.326779 4
32.780458 22.449241 4
32.780458 23.571703 4
32.780458 24.694165 4
32.780458 25.816627 4
32.780442 26.938267 4
32.759011 28.036316 4
33.853102 1.1112637 4
33.852845 2.2446216 4
33.852845 3.3673862 4
33.852845 4.4898482 4
33.852845 5.6123102 4
33.852845 6.7347723 4
33.852845 7.8572343 4
33.852845 8.9796964 4
33.852845 10.102158 4
33.852845 11.22462 4
33.852845 12.347083 4
33.852845 13.469545 4
33.852845 14.592007 4
33.852845 15.714469 4
33.852845 16.836931 4
33.852845 17.959393 4
33.852845 19.081855 4
33.852845 20.204317 4
33.852845 21.326779 4
33.852845 22.449241 4
33.852845 23.571703 4
33.852845 24.694165 4
33.852845 25.816627 4
33.852845 26.939392 4
33.853102 28.07275 4
34.106279 1.1251495 4
34.106671 2.2449816 4
34.106671 3.3673861 4
34.106671 4.4898482 4
34.106671 5.6123102 4
34.106671 6.7347723 4
34.106671 7.8572343 4
34.106671 8.9796964 4
34.106671 10.102158 4
34.106671 11.22462 4
34.106671 12.347083 4
34.106671 13.469545 4
34.106671 14.592007 4
34.106671 15.714469 4
34.106671 16.836931 4
34.106671 17.959393 4
34.106671 19.081855 4
34.106671 20.204317 4
34.106671 21.326779 4
34.106671 22.449241 4
34.106671 23.571703 4
34.106671 24.694165 4
34.106671 25.816627 4
34.106671 26.939032 4
34.106279 28.058864 4
35.179696 1.1230995 4
35.179696 2.2449281 4
35.179696 3.3673861 4
35.179696 4.4898482 4
35.179696 5.6123102 4
35.179696 6.7347723 4
35.179696 7.8572343 4
35.179696 8.9796964 4
35.179696 10.102158 4
35.179696 11.22462 4
35.179696 12.347083 4
35.179696 13.469545 4
35.179696 14.592007 4
35.179696 15.714469 4
35.179696 16.836931 4
35.179696 17.959393 4
35.179696 19.081855 4
35.179696 20.204317 4
35.179696 21.326779 4
35.179696 22.449241 4
35.179696 23.571703 4
35.179696 24.694165 4
35.179696 25.816627 4
35.179696 26.939085 4
35.179696 28.060914 4
36.302158 1.1230995 4
36.302158 2.2449281 4
36.302158 3.3673861 4
36.302158 4.4898482 4
36.302158 5.6123102 4
36.302158 6.7347723 4
36.302158 7.8572343 4
36.302158 8.9796964 4
36.302158 10.102158 4
36.302158 11.22462 4
36.302158 12.347083 4
36.302158 13.469545 4
36.302158 14.592007 4
36.302158 15.714469 4
36.302158 16.836931 4
36.302158 17.959393 4
36.302158 19.081855 4
36.302158 20.204317 4
36.302158 21.326779 4
36.302158 22.449241 4
36.302158 23.571703 4
36.302158 24.694165 4
36.302158 25.816627 4
36.302158 26.939085 4
36.302158 28.060914 4
37.42462 1.1230995 4
37.42462 2.2449281 4
37.42462 3.3673861 4
37.42462 4.4898482 4
37.42462 5.6123102 4
37.42462 6.7347723 4
37.42462 7.8572343 4
37.42462 8.9796964 4
37.42462 10.102158 4
37.42462 11.22462 4
37.42462 12.347083 4
37.42462 13.469545 4
37.42462 14.592007 4
37.42462 15.714469 4
37.42462 16.836931 4
37.42462 17.959393 4
37.42462 19.081855 4
37.42462 20.204317 4
37.42462 21.326779 4
37.42462 22.449241 4
37.42462 23.571703 4
37.42462 24.694165 4
37.42462 25.816627 4
37.42462 26.939085 4
37.42462 28.060914 4
38.547083 1.1230995 4
38.547083 2.2449281 4
38.547083 3.3673861 4
38.547083 4.4898482 4
38.547083 5.6123102 4
38.547083 6.7347723 4
38.547083 7.8572343 4
38.547083 8.9796964 4
38.547083 10.102158 4
38.547083 11.22462 4
38.547083 12.347083 4
38.547083 13.469545 4
38.547083 14.592007 4
38.547083 15.714469 4
38.547083 16.836931 4
38.547083 17.959393 4
38.547083 19.081855 4
38.547083 20.204317 4
38.547083 21.326779 4
38.547083 22.449241 4
38.547083 23.571703 4
38.547083 24.694165 4
38.547083 25.816627 4
38.547083 26.939085 4
38.547083 28.060914 4
39.669545 1.1230995 4
39.669545 2.2449281 4
39.669545 3.3673861 4
39.669545 4.4898482 4
39.669545 5.6123102 4
39.669545 6.7347723 4
39.669545 7.8572343 4
39.669545 8.9796964 4
39.669545 10.102158 4
39.669545 11.22462 4
39.669545 12.347083 4
39.669545 13.469545 4
39.669545 14.592007 4
39.669545 15.714469 4
39.669545 16.836931 4
39.669545 17.959393 4
39.669545 19.081855 4
39.669545 20.204317 4
39.669545 21.326779 4
39.669545 22.449241 4
39.669545 23.571703 4
39.669545 24.694165 4
39.669545 25.816627 4
39.669545 26.939085 4
39.669545 28.060914 4
40.792007 1.1230995 4
40.792007 2.2449281 4
40.792007 3.3673861 4
40.792007 4.4898482 4
40.792007 5.6123102 4
40.792007 6.7347723 4
40.792007 7.8572343 4
40.792007 8.9796964 4
40.792007 10.102158 4
40.792007 11.22462 4
40.792007 12.347083 4
40.792007 13.469545 4
40.792007 14.592007 4
40.792007 15.714469 4
40.792007 16.836931 4
40.792007 17.959393 4
40.792007 19.081855 4
40.792007 20.204317 4
40.792007 21.326779 4
40.792007 22.449241 4
40.792007 23.571703 4
40.792007 24.694165 4
40.792007 25.816627 4
40.792007 26.939085 4
40.792007 28.060914 4
41.914469 1.1230995 4
41.914469 2.2449281 4
41.914469 3.3673861 4
41.914469 4.4898482 4
41.914469 5.6123102 4
41.914469 6.7347723 4
41.914469 7.8572343 4
41.914469 8.9796964 4
41.914469 10.102158 4
41.914469 11.22462 4
41.914469 12.347083 4
41.914469 13.469545 4
41.914469 14.592007 4
41.914469 15.714469 4
41.914469 16.836931 4
41.914469 17.959393 4
41.914469 19.081855 4
41.914469 20.204317 4
41.914469 21.326779 4
41.914469 22.449241 4
41.914469 23.571703 4
41.914469 24.694165 4
41.914469 25.816627 4
41.914469 26.939085 4
41.914469 28.060914 4
43.036931 1.1230995 4
43.036931 2.2449281 4
43.036931 3.3673861 4
43.036931 4.4898482 4
43.036931 5.6123102 4
43.036931 6.7347723 4
43.036931 7.8572343 4
43.036931 8.9796964 4
43.036931 10.102158 4
43.036931 11.22462 4
43.036931 12.347083 4
43.036931 13.469545 4
43.036931 14.592007 4
43.036931 15.714469 4
43.036931 16.836931 4
43.036931 17.959393 4
43.036931 19.081855 4
43.036931 20.204317 4
43.036931 21.326779 4
43.036931 22.449241 4
43.036931 23.571703 4
43.036931 24.694165 4
43.036931 25.816627 4
43.036931 26.939085 4
43.036931 28.060914 4
44.159393 1.1230995 4
44.159393 2.2449281 4
44.159393 3.3673861 4
44.159393 4.4898482 4
44.159393 5.6123102 4
44.159393 6.7347723 4
44.159393 7.8572343 4
44.159393 8.9796964 4
44.159393 10.102158 4
44.159393 11.22462 4
44.159393 12.347083 4
44.159393 13.469545 4
44.159393 14.592007 4
44.159393 15.714469 4
44.159393 16.836931 4
44.159393 17.959393 4
44.159393 19.081855 4
44.159393 20.204317 4
44.159393 21.326779 4
44.159393 22.449241 4
44.159393 23.571703 4
44.159393 24.694165 4
44.159393 25.816627 4
44.159393 26.939085 4
44.159393 28.060914 4
45.281855 1.1230995 4
45.281855 2.2449281 4
45.281855 3.3673861 4
45.281855 4.4898482 4
45.281855 5.6123102 4
45.281855 6.7347723 4
45.281855 7.8572343 4
45.281855 8.9796964 4
45.281855 10.102158 4
45.281855 11.22462 4
45.281855 12.347083 4
45.281855 13.469545 4
45.281855 14.592007 4
45.281855 15.714469 4
45.281855 16.836931 4
45.281855 17.959393 4
45.281855 19.081855 4
45.281855 20.204317 4
45.281855 21.326779 4
45.281855 22.449241 4
45.281855 23.571703 4
45.281855 24.694165 4
45.281855 25.816627 4
45.281855 26.939085 4
45.281855 28.060914 4
46.404317 1.1230995 4
46.404317 2.2449281 4
46.404317 3.3673861 4
46.404317 4.4898482 4
46.404317 5.6123102 4
46.404317 6.7347723 4
46.404317 7.8572343 4
46.404317 8.9796964 4
46.404317 10.102158 4
46.404317 11.22462 4
46.404317 12.347083 4
46.404317 13.469545 4
46.404317 14.592007 4
46.404317 15.714469 4
46.404317 16.836931 4
46.404317 17.959393 4
46.404317 19.081855 4
46.404317 20.204317 4
46.404317 21.326779 4
46.404317 22.449241 4
46.404317 23.571703 4
46.404317 24.694165 4
46.404317 25.816627 4
46.404317 26.939085 4
46.404317 28.060914 4
47.526779 1.1230995 4
47.526779 2.2449281 4
47.526779 3.3673861 4
[...]
POINT_DATA 1250
SCALARS m double
LOOKUP_TABLE default
1
1
1
1
1
1
1
1
1
1
1
1
1
1
1
1
1
1
1
1
1
1
1
1
1
1
1
1
1
1
1
1
1
1
1
1
1
1
1
1
1
1
1
1
1
1
1
1
1
1
1
1
1
1
1
1
1
1
1
1
1
1
1
1
1
1
1
1
1
1
1
1
1
1
1
1
1
1
1
1
1
1
1
1
1
1
1
1
1
1
1
1
1
1
1
1
1
1
1
1
1
1
1
1
1
1
1
1
1
1
1
1
1
1
1
1
1
1
1
1
1
1
1
1
1
1
1
1
1
1
1
1
1
1
1
1
1
1
1
1
1
1
1
1
1
1
1
1
1
1
1
1
1
1
1
1
1
1
1
1
1
1
1
1
1
1
1
1
1
1
1
1
1
1
1
1
1
1
1
1
1
1
1
1
1
1
1
1
1
1
1
1
1
1
1
1
1
1
1
1
1
1
1
1
1
1
1
1
1
1
1
1
1
1
1
1
1
1
1
1
1
1
1
1
1
1
1
1
1
1
1
1
1
1
1
1
1
1
1
1
1
1
1
1
1
1
1
1
1
1
1
1
1
1
1
1
1
1
1
1
1
1
1
1
1
1
1
1
1
1
1
1
1
1
1
1
1
1
1
1
1
1
1
1
1
1
1
1
1
1
1
1
1
1
1
1
1
1
1
1
1
1
1
1
1
1
1
1
1
1
1
1
1
1
1
1
1
1
1
1
1
1
1
1
1
1
1
1
1
1
1
1
1
1
1
1
1
1
1
1
1
1
1
1
1
1
1
1
1
1
1
1
1
1
1
1
1
1
1
1
1
1
1
1
1
1
1
1
1
1
1
1
1
1
1
1
1
1
1
1
1
1
1
1
1
1
1
1
1
1
1
1
1
1
1
1
1
1
1
1
1
1
1
1
1
1
1
1
1
1
1
1
1
1
1
1
1
1
1
1
1
1
1
1
1
1
1
1
1
1
1
1
1
1
1
1
1
1
1
1
1
1
1
1
1
1
1
1
1
1
1
1
1
1
1
1
1
1
1
1
1
1
1
1
1
1
1
1
1
1
1
1
1
1
1
1
1
1
1
1
1
1
1
1
1
1
1
1
1
1
1
1
1
1
1
1
1
1
1
1
1
1
1
1
1
1
1
1
1
1
1
1
1
1
1
1
1
1
1
1
1
1
1
1
1
1
1
1
1
1
1
1
1
1
1
1
1
1
1
1
1
1
1
1
1
1
1
1
1
1
1
1
1
1
1
1
1
1
1
1
1
1
1
1
1
1
1
1
1
1
1
1
1
1
1
1
1
1
1
1
1
1
1
1
1
1
1
1
1
1
1
1
1
1
1
1
1
1
1
1
1
1
1
1
1
1
1
1
1
1
1
1
1
1
1
1
1
1
1
1
1
1
1
1
1
1
1
1
1
1
1
1
1
1
1
1
1
1
1
1
1
1
1
1
1
1
1
1
1
1
1
1
1
1
1
1
1
1
1
1
1
1
1
1
1
1
1
1
1
1
1
1
1
1
1
1
1
1
1
1
1
1
1
1
1
1
1
1
1
1
1
1
1
1
1
1
1
1
1
1
1
1
1
1
1
1
1
1
1
1
1
1
1
1
1
1
1
1
1
1
1
1
1
1
1
1
1
1
1
1
1
1
1
1
1
1
1
1
1
1
1
1
1
1
1
1
1
1
1
1
1
1
1
1
1
1
1
1
1
1
1
1
1
1
1
1
1
1
1
1
1
1
1
1
1
1
1
1
1
1
1
1
1
1
1
1
1
1
1
1
1
1
1
1
1
1
1
1
1
1
1
1
1
1
1
1
1
1
1
1
1
1
1
1
1
1
1
1
1
1
1
1
1
1
1
1
1
1
1
1
1
1
1
1
1
1
1
1
1
1
1
1
1
1
1
1
1
1
1
1
1
1
1
1
1
1
1
1
1
1
1
1
1
1
1
1
1
1
1
1
1
1
1
1
1
1
1
1
1
1
1
1
1
1
1
1
1
1
1
1
1
1
1
1
1
1
1
1
1
1
1
1
1
1
1
1
1
1
1
1
1
1
1
1
1
1
1
1
1
1
1
1
1
1
1
1
1
1
1
1
1
1
1
1
1
1
1
1
1
1
1
1
1
1
1
1
1
1
1
1
1
1
1
1
1
1
1
1
1
1
1
1
1
1
1
1
1
1
1
1
1
1
1
1
1
1
1
1
1
1
1
1
1
1
1
1
1
1
1
1
1
1
1
1
1
1
1
1
1
1
1
1
1
1
1
1
1
1
1
1
1
1
1
1
1
1
1
1
1
1
1
1
1
1
1
1
1
1
1
1
1
1
1
1
1
1
1
1
1
1
1
1
1
1
1
1
1
1
1
1
1
1
1
1
1
1
1
1
1
1
1
1
1
1
1
1
1
1
1
1
1
1
1
1
1
1
1
1
1
1
1
1
1
1
1
1
1
1
1
1
1
1
1
1
1
1
1
1
1
1
1
1
1
1
1
1
1
1
1
1
1
1
1
1
1
1
1
1
1
1
1
1
1
1
1
1
1
1
1
1
1
1
1
1
1
1
1
1
1
1
1
1
1
1
1
1
1
1
1
1
1
1
1
1
1
1
1
1
1
1
1
1
1
1
1
1
1
1
1
1
1
1
1
1
1
1
1
1
1
1
1
1
1
1
1
1
1
1
1
1
1
1
1
1
1
1
1
1
1
1
1
1
1
1
1
1
1
1
1
1
1
1
1
1
1
1
1
1
1
1
1
1
1
1
1
1
1
1
1
1
1
1
1
1
1
1
1
1
1
1
1
1
1
1
1
1
1
1
1
1
VECTORS v double
7.8539888 1.4273885 0
8.947091 0.035135433 0
8.9475529 -1.2236593e-05 0
8.9475508 -1.1601919e-08 0
8.9475508 -2.1540564e-08 0
8.9475508 3.7611592e-13 0
8.9475508 -1.4969833e-13 0
8.9475508 -5.9957627e-13 0
8.9475508 3.2033434e-15 0
8.9475508 -3.0187193e-13 0
8.9475508 -5.9821119e-13 0
8.9475508 6.7374618e-12 0
8.9475508 4.6535185e-10 0
8.9475508 -6.7373214e-12 0
8.9475508 5.9823016e-13 0
8.9475508 6.010763e-13 0
8.9475508 -2.8501799e-15 0
8.9475508 -1.424192e-17 0
8.9475508 1.0850028e-16 0
8.9475508 -6.0688754e-13 0
8.9475508 -5.3101212e-12 0
8.9475508 1.0369462e-08 0
8.9475529 1.2247979e-05 0
8.947091 -0.03513542 0
7.8539888 -1.4273885 0
7.76944 -3.5523636 0
-8.934391 -0.41689006 0
-8.9464974 0.00010928487 0
-8.9464977 1.4536724e-07 0
-8.9464976 1.13908e-08 0
-8.9464976 1.7179973e-13 0
-8.9464976 -1.2133128e-13 0
-8.9464976 -4.8648016e-13 0
-8.9464976 3.0675308e-15 0
-8.9464976 -2.452344e-13 0
-8.9464976 -4.8522298e-13 0
-8.9464976 -7.2403447e-13 0
-8.9464976 -1.6345783e-10 0
-8.9464976 7.2885224e-13 0
-8.9464976 4.8523354e-13 0
-8.9464976 4.8791529e-13 0
-8.9464976 -2.7297682e-15 0
-8.9464976 -1.3293324e-17 0
-8.9464976 1.041069e-16 0
-8.9464976 -4.8768827e-13 0
-8.9464976 -2.8921607e-13 0
-8.9464977 -1.4658857e-07 0
-8.9464974 -0.00010938005 0
-8.934391 0.41688996 0
7.76944 3.5523636 0
-7.7786853 3.4640576 0
8.9363899 0.41525976 0
8.9484856 -0.00010706914 0
8.9484856 -1.3675074e-07 0
8.9484856 -9.9935293e-09 0
8.9484856 1.5119605e-13 0
8.9484856 -8.5167466e-14 0
8.9484856 -3.4085345e-13 0
8.9484856 2.9215702e-15 0
8.9484856 -1.7232436e-13 0
8.9484856 -3.3965035e-13 0
8.9484856 -5.0616055e-13 0
8.9484856 1.3100665e-10 0
8.9484856 5.1014014e-13 0
8.9484856 3.3967117e-13 0
8.9484856 3.422179e-13 0
8.9484856 -2.6009685e-15 0
8.9484856 -1.2153571e-17 0
8.9484856 9.9995096e-17 0
8.9484856 -3.3931833e-13 0
8.9484856 -1.3833967e-12 0
8.9484856 1.3805336e-07 0
8.9484856 0.00010716396 0
8.9363899 -0.41525967 0
-7.7786854 -3.4640576 0
-4.0689383 -6.9036153 0
-8.9411012 -0.2164861 0
-8.9440827 4.6627711e-05 0
-8.9440834 1.1311032e-07 0
-8.9440834 1.6013409e-09 0
-8.9440834 2.1974239e-13 0
-8.9440834 -1.1566549e-13 0
-8.9440834 -4.6383975e-13 0
-8.9440834 2.7746726e-15 0
-8.9440834 -2.3372245e-13 0
-8.9440834 -4.627025e-13 0
-8.9440834 -6.9166189e-13 0
-8.9440834 -9.3168626e-13 0
-8.9440834 6.9390614e-13 0
-8.9440834 4.6271142e-13 0
-8.9440834 4.6513534e-13 0
-8.9440834 -2.4704277e-15 0
-8.9440834 -1.1010561e-17 0
-8.9440834 9.4172035e-17 0
-8.9440834 -4.6078069e-13 0
-8.9440834 2.6843593e-13 0
-8.9440834 -1.1415371e-07 0
-8.9440827 -4.66775e-05 0
-8.9411012 0.21648605 0
-4.0689383 6.9036153 0
3.9677132 5.7903772 0
8.9444743 0.18827383 0
8.947522 -3.8119249e-05 0
8.9475226 -6.3579451e-08 0
8.9475226 -1.2910242e-09 0
8.9475226 1.2046429e-13 0
8.9475226 -6.5849952e-14 0
8.9475226 -2.6428144e-13 0
8.9475226 2.6283787e-15 0
8.9475226 -1.3384692e-13 0
8.9475226 -2.6320349e-13 0
8.9475226 -3.9255258e-13 0
8.9475226 -5.2465939e-13 0
8.9475226 3.9465311e-13 0
8.9475226 2.6321158e-13 0
8.9475226 2.6550699e-13 0
8.9475226 -2.3410496e-15 0
8.9475226 -9.8646776e-18 0
8.9475226 8.9788851e-17 0
8.9475226 -2.5797964e-13 0
8.9475226 1.2377947e-12 0
8.9475226 6.451626e-08 0
8.947522 3.8162586e-05 0
8.9444743 -0.18827379 0
3.9677132 -5.7903772 0
-8.8520403 -1.0324773 0
-8.9188437 -0.026828434 0
-8.9189039 4.2160937e-06 0
-8.9189041 6.2530138e-09 0
-8.9189041 2.75538e-13 0
-8.9189041 4.4949675e-14 0
-8.9189041 -2.2398457e-14 0
-8.9189041 -9.0634223e-14 0
-8.9189041 2.4830681e-15 0
-8.9189041 -4.6927013e-14 0
-8.9189041 -8.9614778e-14 0
-8.9189041 -1.3229781e-13 0
-8.9189041 -1.8128297e-13 0
-8.9189041 1.3427805e-13 0
-8.9189041 8.9621989e-14 0
-8.9189041 9.1789672e-14 0
-8.9189041 -2.2119588e-15 0
-8.9189041 -8.7287984e-18 0
-8.9189041 8.5590299e-17 0
-8.9189041 -8.7846343e-14 0
-8.9189041 -2.3036688e-13 0
-8.9189041 -6.4396679e-09 0
-8.9189039 -4.2223769e-06 0
-8.9188437 0.026828428 0
-8.8520403 1.0324773 0
8.8522751 0.8363507 0
8.9216472 0.021629552 0
8.921708 -3.1195762e-06 0
8.9217081 -3.999992e-09 0
8.9217081 -5.9777155e-14 0
8.9217081 -1.3979699e-16 0
8.9217081 5.5099114e-18 0
8.9217081 -9.5923136e-16 0
8.9217081 2.33866e-15 0
8.9217081 -1.9955767e-15 0
8.9217081 1.3383217e-18 0
8.9217081 2.0027732e-15 0
8.9217081 -1.931281e-15 0
8.9217081 -1.3710778e-16 0
8.9217081 5.3751396e-18 0
8.9217081 2.0464566e-15 0
8.9217081 -2.0840554e-15 0
8.9217081 -7.5708717e-18 0
8.9217081 8.0769601e-17 0
8.9217081 2.0692363e-15 0
8.9217081 5.9574553e-14 0
8.9217081 4.1500554e-09 0
8.921708 3.1246304e-06 0
8.9216472 -0.021629547 0
8.8522751 -0.8363507 0
-10.00004 0.0033607796 0
-10.000045 1.9136646e-05 0
-10.000045 -4.1384362e-08 0
-10.000045 -8.8654649e-11 0
-10.000045 9.4780947e-14 0
-10.000045 1.1693293e-16 0
-10.000045 -2.8392747e-18 0
-10.000045 -9.5868532e-16 0
-10.000045 2.2546218e-15 0
-10.000045 -1.9406779e-15 0
-10.000045 -3.230121e-17 0
-10.000045 1.880264e-15 0
-10.000045 -1.9291895e-15 0
-10.000045 -8.1454508e-17 0
-10.000045 3.8495532e-17 0
-10.000045 2.0064497e-15 0
-10.000045 -2.009391e-15 0
-10.000045 -6.9443239e-18 0
-10.000045 7.7766817e-17 0
-10.000045 1.7453504e-15 0
-10.000045 -9.6138532e-14 0
-10.000045 8.865437e-11 0
-10.000045 4.1384361e-08 0
-10.000045 -1.9136646e-05 0
-10.00004 -0.0033607796 0
-10 0.0033568556 0
-10 1.9057631e-05 0
-10 -4.2340055e-08 0
-10 -8.4287212e-11 0
-10 9.4437493e-14 0
-10 1.1627431e-16 0
-10 -2.8112053e-18 0
-10 -9.5873395e-16 0
-10 2.2537395e-15 0
-10 -1.9399083e-15 0
-10 -3.2534842e-17 0
-10 1.8791349e-15 0
-10 -1.9286758e-15 0
-10 -8.1159627e-17 0
-10 3.8599518e-17 0
-10 2.0058745e-15 0
-10 -2.0085956e-15 0
-10 -6.9349015e-18 0
-10 7.7710005e-17 0
-10 1.7452623e-15 0
-10 -9.5801408e-14 0
-10 8.4286677e-11 0
-10 4.2340054e-08 0
-10 -1.9057631e-05 0
-10 -0.0033568556 0
-10 0.0033568222 0
-10 1.9057652e-05 0
-10 -4.2339409e-08 0
-10 -8.4286981e-11 0
-10 9.4437026e-14 0
-10 1.1625542e-16 0
-10 -2.8678773e-18 0
-10 -9.5888567e-16 0
-10 2.2538313e-15 0
-10 -1.9396289e-15 0
-10 -3.2489689e-17 0
-10 1.8791767e-15 0
-10 -1.9285493e-15 0
-10 -8.1145869e-17 0
-10 3.8535481e-17 0
-10 2.005864e-15 0
-10 -2.0086103e-15 0
-10 -6.9329001e-18 0
-10 7.763168e-17 0
-10 1.7453923e-15 0
-10 -9.5801003e-14 0
-10 8.4286445e-11 0
-10 4.2339409e-08 0
-10 -1.9057652e-05 0
-10 -0.0033568222 0
-10 0.0033568222 0
-10 1.9057652e-05 0
-10 -4.2339409e-08 0
-10 -8.4286981e-11 0
-10 9.4437039e-14 0
-10 1.1632579e-16 0
-10 -2.8527402e-18 0
-10 -9.5844307e-16 0
-10 2.2536263e-15 0
-10 -1.9401375e-15 0
-10 -3.2648183e-17 0
-10 1.8792511e-15 0
-10 -1.9286582e-15 0
-10 -8.1225271e-17 0
-10 3.8745079e-17 0
-10 2.0058627e-15 0
-10 -2.008598e-15 0
-10 -6.9423041e-18 0
-10 7.7650726e-17 0
-10 1.7453785e-15 0
-10 -9.5801139e-14 0
-10 8.4286444e-11 0
-10 4.2339409e-08 0
-10 -1.9057652e-05 0
-10 -0.0033568222 0
-10 0.0033568222 0
-10 1.9057652e-05 0
-10 -4.2339409e-08 0
-10 -8.4286981e-11 0
-10 9.4437168e-14 0
-10 1.1632721e-16 0
-10 -2.8018975e-18 0
-10 -9.5868336e-16 0
-10 2.2537089e-15 0
-10 -1.9399132e-15 0
-10 -3.2525608e-17 0
-10 1.8791109e-15 0
-10 -1.9284439e-15 0
-10 -8.1200913e-17 0
-10 3.8883575e-17 0
-10 2.005857e-15 0
-10 -2.0085234e-15 0
-10 -6.9346577e-18 0
-10 7.7625581e-17 0
-10 1.7453656e-15 0
-10 -9.5801179e-14 0
-10 8.4286445e-11 0
-10 4.2339409e-08 0
-10 -1.9057652e-05 0
-10 -0.0033568222 0
-10 0.0033568222 0
-10 1.9057652e-05 0
-10 -4.2339409e-08 0
-10 -8.4286981e-11 0
-10 9.4437171e-14 0
-10 1.1623461e-16 0
-10 -2.869612e-18 0
-10 -9.5891776e-16 0
-10 2.2538227e-15 0
-10 -1.9395864e-15 0
-10 -3.2500098e-17 0
-10 1.8791533e-15 0
-10 -1.9286829e-15 0
-10 -8.1145869e-17 0
-10 3.8524205e-17 0
-10 2.0058709e-15 0
-10 -2.0085886e-15 0
-10 -6.9329001e-18 0
-10 7.7609996e-17 0
-10 1.7454118e-15 0
-10 -9.5801428e-14 0
-10 8.4286445e-11 0
-10 4.2339409e-08 0
-10 -1.9057652e-05 0
-10 -0.0033568222 0
-10 0.0033568222 0
-10 1.9057652e-05 0
-10 -4.2339409e-08 0
-10 -8.4286981e-11 0
-10 9.4437216e-14 0
-10 1.1623981e-16 0
-10 -2.869612e-18 0
-10 -9.5842336e-16 0
-10 2.2538227e-15 0
-10 -1.9400808e-15 0
-10 -3.2500098e-17 0
-10 1.8793181e-15 0
-10 -1.9286829e-15 0
-10 -8.1145869e-17 0
-10 3.8524205e-17 0
-10 2.0058709e-15 0
-10 -2.0085886e-15 0
-10 -6.9329001e-18 0
-10 7.7609996e-17 0
-10 1.7454122e-15 0
-10 -9.5801275e-14 0
-10 8.4286445e-11 0
-10 4.2339409e-08 0
-10 -1.9057652e-05 0
-10 -0.0033568222 0
-10 0.0033568222 0
-10 1.9057652e-05 0
-10 -4.2339409e-08 0
-10 -8.4286981e-11 0
-10 9.4437194e-14 0
-10 1.1633273e-16 0
-10 -2.8527402e-18 0
-10 -9.5844307e-16 0
-10 2.2536263e-15 0
-10 -1.9401375e-15 0
-10 -3.2653387e-17 0
-10 1.8792459e-15 0
-10 -1.9288143e-15 0
-10 -8.1225271e-17 0
-10 3.8745079e-17 0
-10 2.0058627e-15 0
-10 -2.008598e-15 0
-10 -6.9423041e-18 0
-10 7.7650726e-17 0
-10 1.7453785e-15 0
-10 -9.5801203e-14 0
-10 8.4286445e-11 0
-10 4.2339409e-08 0
-10 -1.9057652e-05 0
-10 -0.0033568222 0
-10 0.0033568222 0
-10 1.9057652e-05 0
-10 -4.2339409e-08 0
-10 -8.4286981e-11 0
-10 9.4437165e-14 0
-10 1.1631593e-16 0
-10 -2.8018975e-18 0
-10 -9.5868336e-16 0
-10 2.2537089e-15 0
-10 -1.9399132e-15 0
-10 -3.2525608e-17 0
-10 1.8791109e-15 0
-10 -1.9284439e-15 0
-10 -8.1200913e-17 0
-10 3.8883575e-17 0
-10 2.005857e-15 0
-10 -2.0085234e-15 0
-10 -6.9346577e-18 0
-10 7.7625581e-17 0
-10 1.7453656e-15 0
-10 -9.5801304e-14 0
-10 8.4286445e-11 0
-10 4.2339409e-08 0
-10 -1.9057652e-05 0
-10 -0.0033568222 0
-10 0.0033568222 0
-10 1.9057652e-05 0
-10 -4.2339409e-08 0
-10 -8.4286981e-11 0
-10 9.4436996e-14 0
-10 1.1623981e-16 0
-10 -2.869612e-18 0
-10 -9.5891776e-16 0
-10 2.2538227e-15 0
-10 -1.9395864e-15 0
-10 -3.2500098e-17 0
-10 1.8791533e-15 0
-10 -1.9286829e-15 0
-10 -8.1145869e-17 0
-10 3.8524205e-17 0
-10 2.0058709e-15 0
-10 -2.0085886e-15 0
-10 -6.9329001e-18 0
-10 7.7609996e-17 0
-10 1.7454122e-15 0
-10 -9.5801043e-14 0
-10 8.4286445e-11 0
-10 4.2339409e-08 0
-10 -1.9057652e-05 0
-10 -0.0033568222 0
-10 0.0033568222 0
-10 1.9057652e-05 0
-10 -4.2339409e-08 0
-10 -8.4286981e-11 0
-10 9.4437123e-14 0
-10 1.1624848e-16 0
-10 -2.869612e-18 0
-10 -9.5842336e-16 0
-10 2.2538227e-15 0
-10 -1.9400808e-15 0
-10 -3.2500098e-17 0
-10 1.8793181e-15 0
-10 -1.9286829e-15 0
-10 -8.1145869e-17 0
-10 3.8524205e-17 0
-10 2.0058709e-15 0
-10 -2.0085886e-15 0
-10 -6.9329001e-18 0
-10 7.7609996e-17 0
-10 1.7454121e-15 0
-10 -9.5801082e-14 0
-10 8.4286445e-11 0
-10 4.2339409e-08 0
-10 -1.9057652e-05 0
-10 -0.0033568222 0
-10 0.0033568222 0
-10 1.9057652e-05 0
-10 -4.2339409e-08 0
-10 -8.4286981e-11 0
-10 9.4437127e-14 0
-10 1.1624848e-16 0
-10 -2.869612e-18 0
-10 -9.5842336e-16 0
-10 2.2538227e-15 0
-10 -1.9400808e-15 0
-10 -3.2500098e-17 0
-10 1.8793181e-15 0
-10 -1.9288477e-15 0
-10 -8.1145869e-17 0
-10 3.8524205e-17 0
-10 2.0058709e-15 0
-10 -2.0085886e-15 0
-10 -6.9329001e-18 0
-10 7.7609996e-17 0
-10 1.7454122e-15 0
-10 -9.5801083e-14 0
-10 8.4286445e-11 0
-10 4.2339409e-08 0
-10 -1.9057652e-05 0
-10 -0.0033568222 0
-10 0.0033568222 0
-10 1.9057652e-05 0
-10 -4.2339409e-08 0
-10 -8.4286981e-11 0
-10 9.4436968e-14 0
-10 1.1637492e-16 0
-10 -2.8116267e-18 0
-10 -9.5866001e-16 0
-10 2.2537889e-15 0
-10 -1.9400627e-15 0
-10 -3.2634584e-17 0
-10 1.8792037e-15 0
-10 -1.9287459e-15 0
-10 -8.1249461e-17 0
-10 3.871698e-17 0
-10 2.005746e-15 0
-10 -2.0084916e-15 0
-10 -6.9440617e-18 0
-10 7.7631627e-17 0
-10 1.7451933e-15 0
-10 -9.5801142e-14 0
-10 8.4286445e-11 0
-10 4.2339409e-08 0
-10 -1.9057652e-05 0
-10 -0.0033568222 0
-10 0.0033568222 0
-10 1.9057652e-05 0
-10 -4.2339409e-08 0
-10 -8.4286982e-11 0
-10 9.4437553e-14 0
-10 1.1651633e-16 0
-10 -2.8908079e-18 0
-10 -9.5922366e-16 0
-10 2.2540903e-15 0
-10 -1.9401927e-15 0
-10 -3.2651644e-17 0
-10 1.8792363e-15 0
-10 -1.929469e-15 0
-10 -8.0465634e-17 0
-10 3.8875458e-17 0
-10 2.0059989e-15 0
-10 -2.0086866e-15 0
-10 -6.9360174e-18 0
-10 7.7761144e-17 0
-10 1.7445382e-15 0
-10 -9.580132e-14 0
-10 8.4286445e-11 0
-10 4.2339409e-08 0
-10 -1.9057652e-05 0
-10 -0.0033568222 0
-10 0.0033568222 0
-10 1.9057652e-05 0
-10 -4.2339409e-08 0
-10 -8.4286976e-11 0
-10 9.4437291e-14 0
-10 1.1643485e-16 0
-10 -2.8532798e-18 0
-10 -9.5871323e-16 0
-10 2.2538582e-15 0
-10 -1.9400531e-15 0
-10 -3.2554593e-17 0
-10 1.8793035e-15 0
-10 -1.9290796e-15 0
-10 -8.1023297e-17 0
-10 3.8739776e-17 0
-10 2.0059824e-15 0
-10 -2.0088811e-15 0
-10 -6.9375501e-18 0
-10 7.7992939e-17 0
-10 1.7449172e-15 0
-10 -9.5801178e-14 0
-10 8.4286438e-11 0
-10 4.2339408e-08 0
-10 -1.9057652e-05 0
-10 -0.0033568222 0
-10 0.003356823 0
-10 1.9057646e-05 0
-10 -4.2339712e-08 0
-10 -8.4286838e-11 0
-10 9.4437866e-14 0
-10 1.1633909e-16 0
-10 -2.7687599e-18 0
-10 -9.5825332e-16 0
-10 2.2536787e-15 0
-10 -1.9398243e-15 0
-10 -3.2269549e-17 0
-10 1.8796744e-15 0
-10 -1.9279195e-15 0
-10 -8.2057718e-17 0
-10 3.8543411e-17 0
-10 2.0055072e-15 0
-10 -2.0088496e-15 0
-10 -6.9374746e-18 0
-10 7.797463e-17 0
-10 1.7452903e-15 0
-10 -9.5802126e-14 0
-10 8.4286285e-11 0
-10 4.2339712e-08 0
-10 -1.9057646e-05 0
-10 -0.003356823 0
-10.000019 0.0033569316 0
-10.000019 1.9071018e-05 0
-10.000019 -4.2349824e-08 0
-10.000019 -8.4327315e-11 0
-10.000019 9.4469445e-14 0
-10.000019 1.1683052e-16 0
-10.000019 -3.0202631e-18 0
-10.000019 -9.6001811e-16 0
-10.000019 2.253773e-15 0
-10.000019 -1.9404257e-15 0
-10.000019 -3.354442e-17 0
-10.000019 1.8778788e-15 0
-10.000019 -1.9313652e-15 0
-10.000019 -7.9631621e-17 0
-10.000019 3.9891896e-17 0
-10.000019 2.0069376e-15 0
-10.000019 -2.009223e-15 0
-10.000019 -6.9376997e-18 0
-10.000019 7.8298608e-17 0
-10.000019 1.7438756e-15 0
-10.000019 -9.5832778e-14 0
-10.000019 8.4326658e-11 0
-10.000019 4.2349824e-08 0
-10.000019 -1.9071018e-05 0
-10.000019 -0.0033569316 0
-10.003172 0.0031715763 0
-10.003357 1.9378251e-05 0
-10.003357 -4.0917471e-08 0
-10.003357 -8.5654348e-11 0
-10.003357 9.1753353e-14 0
-10.003357 1.1870488e-16 0
-10.003357 -3.2746107e-18 0
-10.003357 -9.3711196e-16 0
-10.003357 2.1964841e-15 0
-10.003357 -1.8916883e-15 0
-10.003357 -3.4039394e-17 0
-10.003357 1.8285011e-15 0
-10.003357 -1.8853536e-15 0
-10.003357 -7.57978e-17 0
-10.003357 4.0516365e-17 0
-10.003357 1.957243e-15 0
-10.003357 -1.9585649e-15 0
-10.003357 -6.937631e-18 0
-10.003357 7.6859689e-17 0
-10.003357 1.6942981e-15 0
-10.003357 -9.303458e-14 0
-10.003357 8.5653307e-11 0
-10.003357 4.0917471e-08 0
-10.003357 -1.9378251e-05 0
-10.003172 -0.0031715763 0
-7.8539888 1.4273885 0
-8.947091 0.035135429 0
-8.9475529 -1.2241191e-05 0
-8.9475508 -1.0390782e-08 0
-8.9475508 2.1821524e-08 0
-8.9475508 3.8552258e-13 0
-8.9475508 -2.3148919e-13 0
-8.9475508 -9.3142398e-13 0
-8.9475508 3.2028926e-15 0
-8.9475508 -4.6583366e-13 0
-8.9475508 -9.2999937e-13 0
-8.9475508 -8.5912226e-12 0
-8.9475508 -4.744866e-10 0
-8.9475508 8.5999295e-12 0
-8.9475508 9.2609735e-13 0
-8.9475508 9.2899997e-13 0
-8.9475508 -2.8502341e-15 0
-8.9475508 -1.4446384e-17 0
-8.9475508 1.0812809e-16 0
-8.9475508 -9.3481184e-13 0
-8.9475508 -6.5952586e-12 0
-8.9475508 1.2040178e-08 0
-8.9475529 1.2245277e-05 0
-8.947091 -0.035135428 0
-7.8539888 -1.4273885 0
-7.76944 -3.5523636 0
8.934391 -0.41689005 0
8.9464974 0.00010928627 0
8.9464977 1.4293713e-07 0
8.9464976 -1.3836643e-08 0
8.9464976 3.8900732e-13 0
8.9464976 -1.4647366e-13 0
8.9464976 -5.8734822e-13 0
8.9464976 3.0688382e-15 0
8.9464976 -2.9566786e-13 0
8.9464976 -5.8607158e-13 0
8.9464976 -7.4187069e-13 0
8.9464976 1.8520192e-10 0
8.9464976 7.4256892e-13 0
8.9464976 5.8608775e-13 0
8.9464976 5.8878305e-13 0
8.9464976 -2.7303983e-15 0
8.9464976 -1.329151e-17 0
8.9464976 1.0431179e-16 0
8.9464976 -5.8864065e-13 0
8.9464976 -7.6677016e-13 0
8.9464977 -1.4832141e-07 0
8.9464974 -0.0001093776 0
8.934391 0.41688996 0
-7.76944 3.5523636 0
7.7786853 3.4640576 0
-8.9363899 0.41525976 0
-8.9484856 -0.00010707008 0
-8.9484856 -1.3419229e-07 0
-8.9484856 1.2297029e-08 0
-8.9484856 2.870943e-13 0
-8.9484856 -1.3315198e-13 0
-8.9484856 -5.349764e-13 0
-8.9484856 2.9211552e-15 0
-8.9484856 -2.6938679e-13 0
-8.9484856 -5.337843e-13 0
-8.9484856 -7.990425e-13 0
-8.9484856 -1.4797776e-10 0
-8.9484856 7.9963613e-13 0
-8.9484856 5.3378249e-13 0
-8.9484856 5.3634195e-13 0
-8.9484856 -2.6002054e-15 0
-8.9484856 -1.2157531e-17 0
-8.9484856 9.8953838e-17 0
-8.9484856 -5.3345658e-13 0
-8.9484856 -1.3736472e-12 0
-8.9484856 1.3977336e-07 0
-8.9484856 0.00010716159 0
-8.9363899 -0.41525967 0
7.7786854 -3.4640576 0
4.0689383 -6.9036153 0
8.9411012 -0.2164861 0
8.9440827 4.6626848e-05 0
8.9440834 1.112189e-07 0
8.9440834 -2.2297603e-09 0
8.9440834 1.4324435e-13 0
8.9440834 -6.3334468e-14 0
8.9440834 -2.5445594e-13 0
8.9440834 2.7749841e-15 0
8.9440834 -1.2903092e-13 0
8.9440834 -2.5331857e-13 0
8.9440834 -3.7761753e-13 0
8.9440834 -3.2516794e-13 0
8.9440834 3.7980015e-13 0
8.9440834 2.5332768e-13 0
8.9440834 2.5575219e-13 0
8.9440834 -2.4702978e-15 0
8.9440834 -1.1020894e-17 0
8.9440834 9.4355515e-17 0
8.9440834 -2.5134954e-13 0
8.9440834 1.931687e-13 0
8.9440834 -1.1517331e-07 0
8.9440827 -4.6676374e-05 0
8.9411012 0.21648605 0
4.0689383 6.9036153 0
-3.9677132 5.7903772 0
-8.9444743 0.18827383 0
-8.947522 -3.8118444e-05 0
-8.9475226 -6.1893683e-08 0
-8.9475226 1.7930162e-09 0
-8.9475226 2.7381264e-13 0
-8.9475226 -1.3275078e-13 0
-8.9475226 -5.3239651e-13 0
-8.9475226 2.6287205e-15 0
-8.9475226 -2.6790526e-13 0
-8.9475226 -5.3131867e-13 0
-8.9475226 -7.9472979e-13 0
-8.9475226 -1.0946407e-12 0
-8.9475226 7.9682121e-13 0
-8.9475226 5.313267e-13 0
-8.9475226 5.3362293e-13 0
-8.9475226 -2.3405279e-15 0
-8.9475226 -9.8652755e-18 0