# vtk DataFile Version 4.0
hesp visualization file
ASCII
DATASET UNSTRUCTURED_GRID
POINTS 32 double
-4.2351167 0.043428073 4
-5.8298228 2.2841978 4
-5.8298228 3.3281124 4
-4.2351167 5.5688822 4
-4.6634713 -3.5021072 4
-2.8610603 1.6525083 4
-2.8610603 3.959802 4
-4.6634713 9.1144175 4
2.843193 -7.707317 4
-0.4182756 -1.5744751 4
-0.4182756 7.1867853 4
2.843193 13.319627 4
7.1470261 -7.6703045 4
8.6596709 0.94482442 4
8.6596709 4.6674858 4
7.1470261 13.282615 4
14.465284 -7.6703045 4
12.952639 0.94482442 4
12.952639 4.6674858 4
14.465284 13.282615 4
18.769117 -7.707317 4
22.030586 -1.5744751 4
22.030586 7.1867853 4
18.769117 13.319627 4
26.275782 -3.5021072 4
24.473371 1.6525083 4
24.473371 3.959802 4
26.275782 9.1144175 4
25.847427 0.043428073 4
27.442133 2.2841978 4
27.442133 3.3281124 4
25.847427 5.5688822 4
CELLS 0 0
CELL_TYPES 0
POINT_DATA 32
SCALARS m double
LOOKUP_TABLE default
1
1
1
1
1
1
1
1
1
1
1
1
1
1
1
1
1
1
1
1
1
1
1
1
1
1
1
1
1
1
1
1
VECTORS v double
-10.513457 -1.1323783 0
-11.909231 -0.063140557 0
-11.909231 0.063140557 0
-10.513457 1.1323783 0
-12.47317 -4.5526445 0
-9.8358511 -0.27609019 0
-9.8358511 0.27609019 0
-12.47317 4.5526445 0
-6.2396395 -8.7278272 0
-8.3105692 -3.183677 0
-8.3105692 3.183677 0
-6.2396395 8.7278272 0
-3.0734033 -7.7754976 0
-1.4032148 -0.91426677 0
-1.4032148 0.91426677 0
-3.0734033 7.7754976 0
3.0734033 -7.7754976 0
1.4032148 -0.91426677 0
1.4032148 0.91426677 0
3.0734033 7.7754976 0
6.2396395 -8.7278272 0
8.3105692 -3.183677 0
8.3105692 3.183677 0
6.2396395 8.7278272 0
12.47317 -4.5526445 0
9.8358511 -0.27609019 0
9.8358511 0.27609019 0
12.47317 4.5526445 0
10.513457 -1.1323783 0
11.909231 -0.063140557 0
11.909231 0.063140557 0
10.513457 1.1323783 0
