# vtk DataFile Version 4.0
hesp visualization file
ASCII
DATASET UNSTRUCTURED_GRID
POINTS 1250 double
30.622472 1.1224725 4
30.622472 2.2449242 4
30.622472 3.3673861 4
30.622472 4.4898482 4
30.622472 5.6123102 4
30.622472 6.7347723 4
30.622472 7.8572343 4
30.622472 8.9796964 4
30.622472 10.102158 4
30.622472 11.22462 4
30.622472 12.347083 4
30.622472 13.469545 4
30.622472 14.592007 4
30.622472 15.714469 4
30.622472 16.836931 4
30.622472 17.959393 4
30.622472 19.081855 4
30.622472 20.204317 4
30.622472 21.326779 4
30.622472 22.449241 4
30.622472 23.571703 4
30.622472 24.694165 4
30.622472 25.816627 4
30.622472 26.939089 4
30.622472 28.061541 4
31.744924 1.1224731 4
31.744924 2.2449242 4
31.744924 3.3673861 4
31.744924 4.4898482 4
31.744924 5.6123102 4
31.744924 6.7347723 4
31.744924 7.8572343 4
31.744924 8.9796964 4
31.744924 10.102158 4
31.744924 11.22462 4
31.744924 12.347083 4
31.744924 13.469545 4
31.744924 14.592007 4
31.744924 15.714469 4
31.744924 16.836931 4
31.744924 17.959393 4
31.744924 19.081855 4
31.744924 20.204317 4
31.744924 21.326779 4
31.744924 22.449241 4
31.744924 23.571703 4
31.744924 24.694165 4
31.744924 25.816627 4
31.744924 26.939089 4
31.744924 28.06154 4
32.867386 1.1224731 4
32.867386 2.2449242 4
32.867386 3.3673861 4
32.867386 4.4898482 4
32.867386 5.6123102 4
32.867386 6.7347723 4
32.867386 7.8572343 4
32.867386 8.9796964 4
32.867386 10.102158 4
32.867386 11.22462 4
32.867386 12.347083 4
32.867386 13.469545 4
32.867386 14.592007 4
32.867386 15.714469 4
32.867386 16.836931 4
32.867386 17.959393 4
32.867386 19.081855 4
32.867386 20.204317 4
32.867386 21.326779 4
32.867386 22.449241 4
32.867386 23.571703 4
32.867386 24.694165 4
32.867386 25.816627 4
32.867386 26.939089 4
32.867386 28.06154 4
33.989848 1.1224731 4
33.989848 2.2449242 4
33.989848 3.3673861 4
33.989848 4.4898482 4
33.989848 5.6123102 4
33.989848 6.7347723 4
33.989848 7.8572343 4
33.989848 8.9796964 4
33.989848 10.102158 4
33.989848 11.22462 4
33.989848 12.347083 4
33.989848 13.469545 4
33.989848 14.592007 4
33.989848 15.714469 4
33.989848 16.836931 4
33.989848 17.959393 4
33.989848 19.081855 4
33.989848 20.204317 4
33.989848 21.326779 4
33.989848 22.449241 4
33.989848 23.571703 4
33.989848 24.694165 4
33.989848 25.816627 4
33.989848 26.939089 4
33.989848 28.06154 4
35.11231 1.1224731 4
35.11231 2.2449242 4
35.11231 3.3673861 4
35.11231 4.4898482 4
35.11231 5.6123102 4
35.11231 6.7347723 4
35.11231 7.8572343 4
35.11231 8.9796964 4
35.11231 10.102158 4
35.11231 11.22462 4
35.11231 12.347083 4
35.11231 13.469545 4
35.11231 14.592007 4
35.11231 15.714469 4
35.11231 16.836931 4
35.11231 17.959393 4
35.11231 19.081855 4
35.11231 20.204317 4
35.11231 21.326779 4
35.11231 22.449241 4
35.11231 23.571703 4
35.11231 24.694165 4
35.11231 25.816627 4
35.11231 26.939089 4
35.11231 28.06154 4
36.234772 1.1224731 4
36.234772 2.2449242 4
36.234772 3.3673861 4
36.234772 4.4898482 4
36.234772 5.6123102 4
36.234772 6.7347723 4
36.234772 7.8572343 4
36.234772 8.9796964 4
36.234772 10.102158 4
36.234772 11.22462 4
36.234772 12.347083 4
36.234772 13.469545 4
36.234772 14.592007 4
36.234772 15.714469 4
36.234772 16.836931 4
36.234772 17.959393 4
36.234772 19.081855 4
36.234772 20.204317 4
36.234772 21.326779 4
36.234772 22.449241 4
36.234772 23.571703 4
36.234772 24.694165 4
36.234772 25.816627 4
36.234772 26.939089 4
36.234772 28.06154 4
37.357234 1.1224731 4
37.357234 2.2449242 4
37.357234 3.3673861 4
37.357234 4.4898482 4
37.357234 5.6123102 4
37.357234 6.7347723 4
37.357234 7.8572343 4
37.357234 8.9796964 4
37.357234 10.102158 4
37.357234 11.22462 4
37.357234 12.347083 4
37.357234 13.469545 4
37.357234 14.592007 4
37.357234 15.714469 4
37.357234 16.836931 4
37.357234 17.959393 4
37.357234 19.081855 4
37.357234 20.204317 4
37.357234 21.326779 4
37.357234 22.449241 4
37.357234 23.571703 4
37.357234 24.694165 4
37.357234 25.816627 4
37.357234 26.939089 4
37.357234 28.06154 4
38.479696 1.1224731 4
38.479696 2.2449242 4
38.479696 3.3673861 4
38.479696 4.4898482 4
38.479696 5.6123102 4
38.479696 6.7347723 4
38.479696 7.8572343 4
38.479696 8.9796964 4
38.479696 10.102158 4
38.479696 11.22462 4
38.479696 12.347083 4
38.479696 13.469545 4
38.479696 14.592007 4
38.479696 15.714469 4
38.479696 16.836931 4
38.479696 17.959393 4
38.479696 19.081855 4
38.479696 20.204317 4
38.479696 21.326779 4
38.479696 22.449241 4
38.479696 23.571703 4
38.479696 24.694165 4
38.479696 25.816627 4
38.479696 26.939089 4
38.479696 28.06154 4
39.602158 1.1224731 4
39.602158 2.2449242 4
39.602158 3.3673861 4
39.602158 4.4898482 4
39.602158 5.6123102 4
39.602158 6.7347723 4
39.602158 7.8572343 4
39.602158 8.9796964 4
39.602158 10.102158 4
39.602158 11.22462 4
39.602158 12.347083 4
39.602158 13.469545 4
39.602158 14.592007 4
39.602158 15.714469 4
39.602158 16.836931 4
39.602158 17.959393 4
39.602158 19.081855 4
39.602158 20.204317 4
39.602158 21.326779 4
39.602158 22.449241 4
39.602158 23.571703 4
39.602158 24.694165 4
39.602158 25.816627 4
39.602158 26.939089 4
39.602158 28.06154 4
40.72462 1.1224731 4
40.72462 2.2449242 4
40.72462 3.3673861 4
40.72462 4.4898482 4
40.72462 5.6123102 4
40.72462 6.7347723 4
40.72462 7.8572343 4
40.72462 8.9796964 4
40.72462 10.102158 4
40.72462 11.22462 4
40.72462 12.347083 4
40.72462 13.469545 4
40.72462 14.592007 4
40.72462 15.714469 4
40.72462 16.836931 4
40.72462 17.959393 4
40.72462 19.081855 4
40.72462 20.204317 4
40.72462 21.326779 4
40.72462 22.449241 4
40.72462 23.571703 4
40.72462 24.694165 4
40.72462 25.816627 4
40.72462 26.939089 4
40.72462 28.06154 4
41.847083 1.1224731 4
41.847083 2.2449242 4
41.847083 3.3673861 4
41.847083 4.4898482 4
41.847083 5.6123102 4
41.847083 6.7347723 4
41.847083 7.8572343 4
41.847083 8.9796964 4
41.847083 10.102158 4
41.847083 11.22462 4
41.847083 12.347083 4
41.847083 13.469545 4
41.847083 14.592007 4
41.847083 15.714469 4
41.847083 16.836931 4
41.847083 17.959393 4
41.847083 19.081855 4
41.847083 20.204317 4
41.847083 21.326779 4
41.847083 22.449241 4
41.847083 23.571703 4
41.847083 24.694165 4
41.847083 25.816627 4
41.847083 26.939089 4
41.847083 28.06154 4
42.969545 1.1224731 4
42.969545 2.2449242 4
42.969545 3.3673861 4
42.969545 4.4898482 4
42.969545 5.6123102 4
42.969545 6.7347723 4
42.969545 7.8572343 4
42.969545 8.9796964 4
42.969545 10.102158 4
42.969545 11.22462 4
42.969545 12.347083 4
42.969545 13.469545 4
42.969545 14.592007 4
42.969545 15.714469 4
42.969545 16.836931 4
42.969545 17.959393 4
42.969545 19.081855 4
42.969545 20.204317 4
42.969545 21.326779 4
42.969545 22.449241 4
42.969545 23.571703 4
42.969545 24.694165 4
42.969545 25.816627 4
42.969545 26.939089 4
42.969545 28.06154 4
44.092007 1.1224731 4
44.092007 2.2449242 4
44.092007 3.3673861 4
44.092007 4.4898482 4
44.092007 5.6123102 4
44.092007 6.7347723 4
44.092007 7.8572343 4
44.092007 8.9796964 4
44.092007 10.102158 4
44.092007 11.22462 4
44.092007 12.347083 4
44.092007 13.469545 4
44.092007 14.592007 4
44.092007 15.714469 4
44.092007 16.836931 4
44.092007 17.959393 4
44.092007 19.081855 4
44.092007 20.204317 4
44.092007 21.326779 4
44.092007 22.449241 4
44.092007 23.571703 4
44.092007 24.694165 4
44.092007 25.816627 4
44.092007 26.939089 4
44.092007 28.06154 4
45.214469 1.1224731 4
45.214469 2.2449242 4
45.214469 3.3673861 4
45.214469 4.4898482 4
45.214469 5.6123102 4
45.214469 6.7347723 4
45.214469 7.8572343 4
45.214469 8.9796964 4
45.214469 10.102158 4
45.214469 11.22462 4
45.214469 12.347083 4
45.214469 13.469545 4
45.214469 14.592007 4
45.214469 15.714469 4
45.214469 16.836931 4
45.214469 17.959393 4
45.214469 19.081855 4
45.214469 20.204317 4
45.214469 21.326779 4
45.214469 22.449241 4
45.214469 23.571703 4
45.214469 24.694165 4
45.214469 25.816627 4
45.214469 26.939089 4
45.214469 28.06154 4
46.336931 1.1224731 4
46.336931 2.2449242 4
46.336931 3.3673861 4
46.336931 4.4898482 4
46.336931 5.6123102 4
46.336931 6.7347723 4
46.336931 7.8572343 4
46.336931 8.9796964 4
46.336931 10.102158 4
46.336931 11.22462 4
46.336931 12.347083 4
46.336931 13.469545 4
46.336931 14.592007 4
46.336931 15.714469 4
46.336931 16.836931 4
46.336931 17.959393 4
46.336931 19.081855 4
46.336931 20.204317 4
46.336931 21.326779 4
46.336931 22.449241 4
46.336931 23.571703 4
46.336931 24.694165 4
46.336931 25.816627 4
46.336931 26.939089 4
46.336931 28.06154 4
47.459393 1.1224731 4
47.459393 2.2449242 4
47.459393 3.3673861 4
47.459393 4.4898482 4
47.459393 5.6123102 4
47.459393 6.7347723 4
47.459393 7.8572343 4
47.459393 8.9796964 4
47.459393 10.102158 4
47.459393 11.22462 4
47.459393 12.347083 4
47.459393 13.469545 4
47.459393 14.592007 4
47.459393 15.714469 4
47.459393 16.836931 4
47.459393 17.959393 4
47.459393 19.081855 4
47.459393 20.204317 4
47.459393 21.326779 4
47.459393 22.449241 4
47.459393 23.571703 4
47.459393 24.694165 4
47.459393 25.816627 4
47.459393 26.939089 4
47.459393 28.06154 4
48.581855 1.1224731 4
48.581855 2.2449242 4
48.581855 3.3673861 4
48.581855 4.4898482 4
48.581855 5.6123102 4
48.581855 6.7347723 4
48.581855 7.8572343 4
48.581855 8.9796964 4
48.581855 10.102158 4
48.581855 11.22462 4
48.581855 12.347083 4
48.581855 13.469545 4
48.581855 14.592007 4
48.581855 15.714469 4
48.581855 16.836931 4
48.581855 17.959393 4
48.581855 19.081855 4
48.581855 20.204317 4
48.581855 21.326779 4
48.581855 22.449241 4
48.581855 23.571703 4
48.581855 24.694165 4
48.581855 25.816627 4
48.581855 26.939089 4
48.581855 28.06154 4
49.704317 1.1224731 4
49.704317 2.2449242 4
49.704317 3.3673861 4
49.704317 4.4898482 4
49.704317 5.6123102 4
49.704317 6.7347723 4
49.704317 7.8572343 4
49.704317 8.9796964 4
49.704317 10.102158 4
49.704317 11.22462 4
49.704317 12.347083 4
49.704317 13.469545 4
49.704317 14.592007 4
49.704317 15.714469 4
49.704317 16.836931 4
49.704317 17.959393 4
49.704317 19.081855 4
49.704317 20.204317 4
49.704317 21.326779 4
49.704317 22.449241 4
49.704317 23.571703 4
49.704317 24.694165 4
49.704317 25.816627 4
49.704317 26.939089 4
49.704317 28.06154 4
50.826779 1.1224731 4
50.826779 2.2449242 4
50.826779 3.3673861 4
[...]
POINT_DATA 1250
SCALARS m double
LOOKUP_TABLE default
1
1
1
1
1
1
1
1
1
1
1
1
1
1
1
1
1
1
1
1
1
1
1
1
1
1
1
1
1
1
1
1
1
1
1
1
1
1
1
1
1
1
1
1
1
1
1
1
1
1
1
1
1
1
1
1
1
1
1
1
1
1
1
1
1
1
1
1
1
1
1
1
1
1
1
1
1
1
1
1
1
1
1
1
1
1
1
1
1
1
1
1
1
1
1
1
1
1
1
1
1
1
1
1
1
1
1
1
1
1
1
1
1
1
1
1
1
1
1
1
1
1
1
1
1
1
1
1
1
1
1
1
1
1
1
1
1
1
1
1
1
1
1
1
1
1
1
1
1
1
1
1
1
1
1
1
1
1
1
1
1
1
1
1
1
1
1
1
1
1
1
1
1
1
1
1
1
1
1
1
1
1
1
1
1
1
1
1
1
1
1
1
1
1
1
1
1
1
1
1
1
1
1
1
1
1
1
1
1
1
1
1
1
1
1
1
1
1
1
1
1
1
1
1
1
1
1
1
1
1
1
1
1
1
1
1
1
1
1
1
1
1
1
1
1
1
1
1
1
1
1
1
1
1
1
1
1
1
1
1
1
1
1
1
1
1
1
1
1
1
1
1
1
1
1
1
1
1
1
1
1
1
1
1
1
1
1
1
1
1
1
1
1
1
1
1
1
1
1
1
1
1
1
1
1
1
1
1
1
1
1
1
1
1
1
1
1
1
1
1
1
1
1
1
1
1
1
1
1
1
1
1
1
1
1
1
1
1
1
1
1
1
1
1
1
1
1
1
1
1
1
1
1
1
1
1
1
1
1
1
1
1
1
1
1
1
1
1
1
1
1
1
1
1
1
1
1
1
1
1
1
1
1
1
1
1
1
1
1
1
1
1
1
1
1
1
1
1
1
1
1
1
1
1
1
1
1
1
1
1
1
1
1
1
1
1
1
1
1
1
1
1
1
1
1
1
1
1
1
1
1
1
1
1
1
1
1
1
1
1
1
1
1
1
1
1
1
1
1
1
1
1
1
1
1
1
1
1
1
1
1
1
1
1
1
1
1
1
1
1
1
1
1
1
1
1
1
1
1
1
1
1
1
1
1
1
1
1
1
1
1
1
1
1
1
1
1
1
1
1
1
1
1
1
1
1
1
1
1
1
1
1
1
1
1
1
1
1
1
1
1
1
1
1
1
1
1
1
1
1
1
1
1
1
1
1
1
1
1
1
1
1
1
1
1
1
1
1
1
1
1
1
1
1
1
1
1
1
1
1
1
1
1
1
1
1
1
1
1
1
1
1
1
1
1
1
1
1
1
1
1
1
1
1
1
1
1
1
1
1
1
1
1
1
1
1
1
1
1
1
1
1
1
1
1
1
1
1
1
1
1
1
1
1
1
1
1
1
1
1
1
1
1
1
1
1
1
1
1
1
1
1
1
1
1
1
1
1
1
1
1
1
1
1
1
1
1
1
1
1
1
1
1
1
1
1
1
1
1
1
1
1
1
1
1
1
1
1
1
1
1
1
1
1
1
1
1
1
1
1
1
1
1
1
1
1
1
1
1
1
1
1
1
1
1
1
1
1
1
1
1
1
1
1
1
1
1
1
1
1
1
1
1
1
1
1
1
1
1
1
1
1
1
1
1
1
1
1
1
1
1
1
1
1
1
1
1
1
1
1
1
1
1
1
1
1
1
1
1
1
1
1
1
1
1
1
1
1
1
1
1
1
1
1
1
1
1
1
1
1
1
1
1
1
1
1
1
1
1
1
1
1
1
1
1
1
1
1
1
1
1
1
1
1
1
1
1
1
1
1
1
1
1
1
1
1
1
1
1
1
1
1
1
1
1
1
1
1
1
1
1
1
1
1
1
1
1
1
1
1
1
1
1
1
1
1
1
1
1
1
1
1
1
1
1
1
1
1
1
1
1
1
1
1
1
1
1
1
1
1
1
1
1
1
1
1
1
1
1
1
1
1
1
1
1
1
1
1
1
1
1
1
1
1
1
1
1
1
1
1
1
1
1
1
1
1
1
1
1
1
1
1
1
1
1
1
1
1
1
1
1
1
1
1
1
1
1
1
1
1
1
1
1
1
1
1
1
1
1
1
1
1
1
1
1
1
1
1
1
1
1
1
1
1
1
1
1
1
1
1
1
1
1
1
1
1
1
1
1
1
1
1
1
1
1
1
1
1
1
1
1
1
1
1
1
1
1
1
1
1
1
1
1
1
1
1
1
1
1
1
1
1
1
1
1
1
1
1
1
1
1
1
1
1
1
1
1
1
1
1
1
1
1
1
1
1
1
1
1
1
1
1
1
1
1
1
1
1
1
1
1
1
1
1
1
1
1
1
1
1
1
1
1
1
1
1
1
1
1
1
1
1
1
1
1
1
1
1
1
1
1
1
1
1
1
1
1
1
1
1
1
1
1
1
1
1
1
1
1
1
1
1
1
1
1
1
1
1
1
1
1
1
1
1
1
1
1
1
1
1
1
1
1
1
1
1
1
1
1
1
1
1
1
1
1
1
1
1
1
1
1
1
1
1
1
1
1
1
1
1
1
1
1
1
1
1
1
1
1
1
1
1
1
1
1
1
1
1
1
1
1
1
1
1
1
1
1
1
1
1
1
1
1
1
1
1
1
1
1
1
1
1
1
1
1
1
1
1
1
1
1
1
1
1
1
1
1
1
1
1
1
1
1
1
1
1
1
1
1
1
1
1
1
1
1
1
1
1
1
1
1
1
1
1
1
1
1
1
1
1
1
1
1
1
1
1
1
1
1
1
1
1
1
1
1
1
1
1
1
1
1
1
1
1
1
1
1
1
1
1
VECTORS v double
-9.9996275 0.00042125217 0
-9.9996091 3.0356991e-06 0
-9.9996091 -9.6673165e-11 0
-9.9996091 -2.4007649e-13 0
-9.9996091 2.8614498e-17 0
-9.9996091 -1.7295713e-18 0
-9.9996091 -4.0787133e-19 0
-9.9996091 -1.2352856e-16 0
-9.9996091 2.8994751e-16 0
-9.9996091 -2.496202e-16 0
-9.9996091 -4.3190414e-18 0
-9.9996091 2.4149393e-16 0
-9.9996091 -2.4848667e-16 0
-9.9996091 -1.0174923e-17 0
-9.9996091 5.1840831e-18 0
-9.9996091 2.5821295e-16 0
-9.9996091 -2.5841289e-16 0
-9.9996091 -9.1280443e-19 0
-9.9996091 1.010113e-17 0
-9.9996091 2.4084408e-16 0
-9.9996091 -2.5120849e-16 0
-9.9996091 2.4005507e-13 0
-9.9996091 9.6673141e-11 0
-9.9996091 -3.0356991e-06 0
-9.9996275 -0.00042125217 0
-9.9999972 0.00044115442 0
-9.9999972 3.0350889e-06 0
-9.9999972 -9.9730004e-11 0
-9.9999972 -2.4003038e-13 0
-9.9999972 2.8698941e-17 0
-9.9999972 -1.9119153e-18 0
-9.9999972 -3.735495e-19 0
-9.9999972 -1.2596018e-16 0
-9.9999972 2.965587e-16 0
-9.9999972 -2.5522522e-16 0
-9.9999972 -4.1242056e-18 0
-9.9999972 2.4756587e-16 0
-9.9999972 -2.5343069e-16 0
-9.9999972 -1.0984196e-17 0
-9.9999972 4.9552399e-18 0
-9.9999972 2.6379935e-16 0
-9.9999972 -2.642657e-16 0
-9.9999972 -9.129073e-19 0
-9.9999972 1.0211945e-17 0
-9.9999972 2.4669797e-16 0
-9.9999972 -2.5670706e-16 0
-9.9999972 2.400094e-13 0
-9.9999972 9.9729988e-11 0
-9.9999972 -3.0350889e-06 0
-9.9999972 -0.00044115442 0
-10 0.00044115418 0
-10 3.0350609e-06 0
-10 -9.9729631e-11 0
-10 -2.400292e-13 0
-10 2.8887484e-17 0
-10 -1.8689828e-18 0
-10 -3.6918852e-19 0
-10 -1.2607603e-16 0
-10 2.9657714e-16 0
-10 -2.5523976e-16 0
-10 -4.224958e-18 0
-10 2.4739025e-16 0
-10 -2.5368147e-16 0
-10 -1.0768004e-17 0
-10 5.038324e-18 0
-10 2.6388297e-16 0
-10 -2.6430501e-16 0
-10 -9.1270512e-19 0
-10 1.0251212e-17 0
-10 2.4662875e-16 0
-10 -2.5683395e-16 0
-10 2.400079e-13 0
-10 9.9729607e-11 0
-10 -3.0350609e-06 0
-10 -0.00044115418 0
-10 0.00044115418 0
-10 3.0350609e-06 0
-10 -9.9729619e-11 0
-10 -2.4002922e-13 0
-10 2.9042716e-17 0
-10 -1.869464e-18 0
-10 -3.8451943e-19 0
-10 -1.2618033e-16 0
-10 2.9655041e-16 0
-10 -2.5527466e-16 0
-10 -4.3127578e-18 0
-10 2.4722839e-16 0
-10 -2.5388075e-16 0
-10 -1.0618107e-17 0
-10 5.1296897e-18 0
-10 2.6396682e-16 0
-10 -2.6432267e-16 0
-10 -9.1222369e-19 0
-10 1.025174e-17 0
-10 2.465727e-16 0
-10 -2.5696556e-16 0
-10 2.4000765e-13 0
-10 9.9729595e-11 0
-10 -3.0350609e-06 0
-10 -0.00044115418 0
-10 0.00044115418 0
-10 3.0350609e-06 0
-10 -9.9729619e-11 0
-10 -2.4002919e-13 0
-10 2.8972801e-17 0
-10 -1.887613e-18 0
-10 -3.6868276e-19 0
-10 -1.261426e-16 0
-10 2.9654064e-16 0
-10 -2.5525176e-16 0
-10 -4.2693252e-18 0
-10 2.4726177e-16 0
-10 -2.5376266e-16 0
-10 -1.0684258e-17 0
-10 5.07294e-18 0
-10 2.639286e-16 0
-10 -2.6427939e-16 0
-10 -9.1245496e-19 0
-10 1.0213892e-17 0
-10 2.4664369e-16 0
-10 -2.569354e-16 0
-10 2.4000772e-13 0
-10 9.9729595e-11 0
-10 -3.0350609e-06 0
-10 -0.00044115418 0
-10 0.00044115418 0
-10 3.0350609e-06 0
-10 -9.9729619e-11 0
-10 -2.4002923e-13 0
-10 2.8992451e-17 0
-10 -1.8735439e-18 0
-10 -3.7716647e-19 0
-10 -1.2618765e-16 0
-10 2.965332e-16 0
-10 -2.5522031e-16 0
-10 -4.3040296e-18 0
-10 2.4723775e-16 0
-10 -2.5377281e-16 0
-10 -1.0666724e-17 0
-10 5.1047466e-18 0
-10 2.6393898e-16 0
-10 -2.6429133e-16 0
-10 -9.1346446e-19 0
-10 1.0219347e-17 0
-10 2.4663647e-16 0
-10 -2.5691823e-16 0
-10 2.4000778e-13 0
-10 9.9729595e-11 0
-10 -3.0350609e-06 0
-10 -0.00044115418 0
-10 0.00044115418 0
-10 3.0350609e-06 0
-10 -9.9729619e-11 0
-10 -2.400292e-13 0
-10 2.8960332e-17 0
-10 -1.8684567e-18 0
-10 -3.7590737e-19 0
-10 -1.2609675e-16 0
-10 2.9655216e-16 0
-10 -2.5526984e-16 0
-10 -4.2688708e-18 0
-10 2.4728849e-16 0
-10 -2.5374959e-16 0
-10 -1.0697632e-17 0
-10 5.1060391e-18 0
-10 2.639208e-16 0
-10 -2.6428587e-16 0
-10 -9.1224132e-19 0
-10 1.0209762e-17 0
-10 2.4665949e-16 0
-10 -2.5693807e-16 0
-10 2.4000783e-13 0
-10 9.9729595e-11 0
-10 -3.0350609e-06 0
-10 -0.00044115418 0
-10 0.00044115418 0
-10 3.0350609e-06 0
-10 -9.9729619e-11 0
-10 -2.4002921e-13 0
-10 2.8974324e-17 0
-10 -1.886903e-18 0
-10 -3.7754306e-19 0
-10 -1.2610875e-16 0
-10 2.965556e-16 0
-10 -2.5527346e-16 0
-10 -4.2552598e-18 0
-10 2.4730085e-16 0
-10 -2.5379613e-16 0
-10 -1.0677216e-17 0
-10 5.0684352e-18 0
-10 2.6393053e-16 0
-10 -2.6428833e-16 0
-10 -9.1220607e-19 0
-10 1.0212187e-17 0
-10 2.4664973e-16 0
-10 -2.5694171e-16 0
-10 2.4000776e-13 0
-10 9.9729595e-11 0
-10 -3.0350609e-06 0
-10 -0.00044115418 0
-10 0.00044115418 0
-10 3.0350609e-06 0
-10 -9.9729619e-11 0
-10 -2.4002924e-13 0
-10 2.9007059e-17 0
-10 -1.8808011e-18 0
-10 -3.7243097e-19 0
-10 -1.2616538e-16 0
-10 2.9654751e-16 0
-10 -2.5525975e-16 0
-10 -4.2941462e-18 0
-10 2.4723124e-16 0
-10 -2.5381299e-16 0
-10 -1.064294e-17 0
-10 5.0862458e-18 0
-10 2.6394786e-16 0
-10 -2.6428358e-16 0
-10 -9.1243733e-19 0
-10 1.0217737e-17 0
-10 2.4662448e-16 0
-10 -2.569433e-16 0
-10 2.4000772e-13 0
-10 9.9729595e-11 0
-10 -3.0350609e-06 0
-10 -0.00044115418 0
-10 0.00044115418 0
-10 3.0350609e-06 0
-10 -9.9729619e-11 0
-10 -2.4002918e-13 0
-10 2.8944647e-17 0
-10 -1.8936342e-18 0
-10 -3.741606e-19 0
-10 -1.2614961e-16 0
-10 2.9654869e-16 0
-10 -2.5520129e-16 0
-10 -4.2618838e-18 0
-10 2.4727642e-16 0
-10 -2.5370352e-16 0
-10 -1.0718521e-17 0
-10 5.0556839e-18 0
-10 2.6391121e-16 0
-10 -2.6428414e-16 0
-10 -9.1224132e-19 0
-10 1.0208027e-17 0
-10 2.4666908e-16 0
-10 -2.5691287e-16 0
-10 2.4000781e-13 0
-10 9.9729595e-11 0
-10 -3.0350609e-06 0
-10 -0.00044115418 0
-10 0.00044115418 0
-10 3.0350609e-06 0
-10 -9.9729619e-11 0
-10 -2.4002919e-13 0
-10 2.895477e-17 0
-10 -1.8801089e-18 0
-10 -3.7362583e-19 0
-10 -1.2609965e-16 0
-10 2.9652631e-16 0
-10 -2.5527692e-16 0
-10 -4.2895594e-18 0
-10 2.4727961e-16 0
-10 -2.5374452e-16 0
-10 -1.0708352e-17 0
-10 5.0910978e-18 0
-10 2.6391976e-16 0
-10 -2.6428747e-16 0
-10 -9.1346107e-19 0
-10 1.0215466e-17 0
-10 2.4665564e-16 0
-10 -2.5693143e-16 0
-10 2.4000777e-13 0
-10 9.9729595e-11 0
-10 -3.0350609e-06 0
-10 -0.00044115418 0
-10 0.00044115418 0
-10 3.0350609e-06 0
-10 -9.9729619e-11 0
-10 -2.4002923e-13 0
-10 2.8991811e-17 0
-10 -1.863351e-18 0
-10 -3.7040544e-19 0
-10 -1.2615382e-16 0
-10 2.9654411e-16 0
-10 -2.5525607e-16 0
-10 -4.2866242e-18 0
-10 2.4724103e-16 0
-10 -2.5376777e-16 0
-10 -1.0663514e-17 0
-10 5.1231988e-18 0
-10 2.6393809e-16 0
-10 -2.6428113e-16 0
-10 -9.1245496e-19 0
-10 1.0215627e-17 0
-10 2.466342e-16 0
-10 -2.5691713e-16 0
-10 2.4000773e-13 0
-10 9.9729595e-11 0
-10 -3.0350609e-06 0
-10 -0.00044115418 0
-10 0.00044115418 0
-10 3.0350609e-06 0
-10 -9.9729619e-11 0
-10 -2.4002921e-13 0
-10 2.8976797e-17 0
-10 -1.8868112e-18 0
-10 -3.7758053e-19 0
-10 -1.2617339e-16 0
-10 2.9655561e-16 0
-10 -2.5520874e-16 0
-10 -4.2763286e-18 0
-10 2.4725701e-16 0
-10 -2.5377407e-16 0
-10 -1.0677088e-17 0
-10 5.0689743e-18 0
-10 2.6393039e-16 0
-10 -2.6428797e-16 0
-10 -9.1222369e-19 0
-10 1.0211842e-17 0
-10 2.4664989e-16 0
-10 -2.5694223e-16 0
-10 2.4000782e-13 0
-10 9.9729595e-11 0
-10 -3.0350609e-06 0
-10 -0.00044115418 0
-10 0.00044115418 0
-10 3.0350609e-06 0
-10 -9.9729619e-11 0
-10 -2.4002919e-13 0
-10 2.8975134e-17 0
-10 -1.8867871e-18 0
-10 -3.7759258e-19 0
-10 -1.2610839e-16 0
-10 2.9655561e-16 0
-10 -2.5527382e-16 0
-10 -4.2763768e-18 0
-10 2.4727862e-16 0
-10 -2.5377416e-16 0
-10 -1.0677016e-17 0
-10 5.0690225e-18 0
-10 2.6393044e-16 0
-10 -2.6428797e-16 0
-10 -9.1222369e-19 0
-10 1.0211842e-17 0
-10 2.4664984e-16 0
-10 -2.5694219e-16 0
-10 2.4000777e-13 0
-10 9.9729595e-11 0
-10 -3.0350609e-06 0
-10 -0.00044115418 0
-10 0.00044115418 0
-10 3.0350609e-06 0
-10 -9.9729619e-11 0
-10 -2.4002921e-13 0
-10 2.8992596e-17 0
-10 -1.8734958e-18 0
-10 -3.7719056e-19 0
-10 -1.2612269e-16 0
-10 2.965332e-16 0
-10 -2.5528541e-16 0
-10 -4.304126e-18 0
-10 2.4725929e-16 0
-10 -2.5381637e-16 0
-10 -1.066658e-17 0
-10 5.104843e-18 0
-10 2.6393907e-16 0
-10 -2.6429133e-16 0
-10 -9.1346446e-19 0
-10 1.0219347e-17 0
-10 2.4663637e-16 0
-10 -2.5694001e-16 0
-10 2.4000773e-13 0
-10 9.9729595e-11 0
-10 -3.0350609e-06 0
-10 -0.00044115418 0
-10 0.00044115418 0
-10 3.0350609e-06 0
-10 -9.9729619e-11 0
-10 -2.4002924e-13 0
-10 2.8994916e-17 0
-10 -1.8625865e-18 0
-10 -3.7069625e-19 0
-10 -1.261541e-16 0
-10 2.9654404e-16 0
-10 -2.5525542e-16 0
-10 -4.2872073e-18 0
-10 2.4724164e-16 0
-10 -2.5376702e-16 0
-10 -1.0663757e-17 0
-10 5.122675e-18 0
-10 2.6393832e-16 0
-10 -2.6428184e-16 0
-10 -9.1243733e-19 0
-10 1.0216002e-17 0
-10 2.4663402e-16 0
-10 -2.5691728e-16 0
-10 2.4000778e-13 0
-10 9.9729595e-11 0
-10 -3.0350609e-06 0
-10 -0.00044115418 0
-10 0.00044115418 0
-10 3.0350609e-06 0
-10 -9.9729619e-11 0
-10 -2.4002918e-13 0
-10 2.8942985e-17 0
-10 -1.8936101e-18 0
-10 -3.7417265e-19 0
-10 -1.2614966e-16 0
-10 2.9654869e-16 0
-10 -2.5520132e-16 0
-10 -4.2619319e-18 0
-10 2.4727634e-16 0
-10 -2.5372444e-16 0
-10 -1.0718448e-17 0
-10 5.0557321e-18 0
-10 2.6391125e-16 0
-10 -2.6428414e-16 0
-10 -9.1224132e-19 0
-10 1.0208027e-17 0
-10 2.4666904e-16 0
-10 -2.5693374e-16 0
-10 2.4000781e-13 0
-10 9.9729595e-11 0
-10 -3.0350609e-06 0
-10 -0.00044115418 0
-10 0.00044115418 0
-10 3.0350609e-06 0
-10 -9.9729619e-11 0
-10 -2.4002921e-13 0
-10 2.897418e-17 0
-10 -1.8869512e-18 0
-10 -3.7751897e-19 0
-10 -1.2610865e-16 0
-10 2.965556e-16 0
-10 -2.5527342e-16 0
-10 -4.2768475e-18 0
-10 2.4727931e-16 0
-10 -2.5377339e-16 0
-10 -1.0677361e-17 0
-10 5.0683388e-18 0
-10 2.6393044e-16 0
-10 -2.6428833e-16 0
-10 -9.1220607e-19 0
-10 1.0212187e-17 0
-10 2.4664983e-16 0
-10 -2.5694161e-16 0
-10 2.4000776e-13 0
-10 9.9729595e-11 0
-10 -3.0350609e-06 0
-10 -0.00044115418 0
-10 0.00044115418 0
-10 3.0350609e-06 0
-10 -9.9729619e-11 0
-10 -2.400292e-13 0
-10 2.8972403e-17 0
-10 -1.8866953e-18 0
-10 -3.7763005e-19 0
-10 -1.2610798e-16 0
-10 2.9655563e-16 0
-10 -2.5527415e-16 0
-10 -4.2757615e-18 0
-10 2.4727815e-16 0
-10 -2.5379546e-16 0
-10 -1.0676887e-17 0
-10 5.0695617e-18 0
-10 2.6393029e-16 0
-10 -2.6428761e-16 0
-10 -9.1224132e-19 0
-10 1.0211497e-17 0
-10 2.4665e-16 0
-10 -2.5694236e-16 0
-10 2.4000777e-13 0
-10 9.9729595e-11 0
-10 -3.0350609e-06 0
-10 -0.00044115418 0
-10 0.00044115418 0
-10 3.0350609e-06 0
-10 -9.9729619e-11 0
-10 -2.400292e-13 0
-10 2.8941063e-17 0
-10 -1.8737299e-18 0
-10 -3.6817337e-19 0
-10 -1.2612803e-16 0
-10 2.965477e-16 0
-10 -2.5526699e-16 0
-10 -4.2869142e-18 0
-10 2.4727431e-16 0
-10 -2.5375772e-16 0
-10 -1.0711792e-17 0
-10 5.0872294e-18 0
-10 2.6390423e-16 0
-10 -2.6427347e-16 0
-10 -9.1369233e-19 0
-10 1.0212953e-17 0
-10 2.4663141e-16 0
-10 -2.5691264e-16 0
-10 2.4000783e-13 0
-10 9.9729595e-11 0
-10 -3.0350609e-06 0
-10 -0.00044115418 0
-10 0.00044115418 0
-10 3.0350609e-06 0
-10 -9.9729619e-11 0
-10 -2.4002922e-13 0
-10 2.897593e-17 0
-10 -1.8625251e-18 0
-10 -3.7931526e-19 0
-10 -1.2618553e-16 0
-10 2.9655908e-16 0
-10 -2.5527813e-16 0
-10 -4.2832675e-18 0
-10 2.4726828e-16 0
-10 -2.5382004e-16 0
-10 -1.0656271e-17 0
-10 5.1192813e-18 0
-10 2.6391911e-16 0
-10 -2.6428971e-16 0
-10 -9.1222369e-19 0
-10 1.0213576e-17 0
-10 2.4657443e-16 0
-10 -2.5692393e-16 0
-10 2.4000773e-13 0
-10 9.9729595e-11 0
-10 -3.0350609e-06 0
-10 -0.00044115418 0
-10 0.00044115418 0
-10 3.0350609e-06 0
-10 -9.9729619e-11 0
-10 -2.400292e-13 0
-10 2.897099e-17 0
-10 -1.8813949e-18 0
-10 -3.7422031e-19 0
-10 -1.2611571e-16 0
-10 2.965457e-16 0
-10 -2.5527668e-16 0
-10 -4.2683274e-18 0
-10 2.4728697e-16 0
-10 -2.5379097e-16 0
-10 -1.069768e-17 0
-10 5.0878929e-18 0
-10 2.6392929e-16 0
-10 -2.6428916e-16 0
-10 -9.1260385e-19 0
-10 1.022134e-17 0
-10 2.4663411e-16 0
-10 -2.5693893e-16 0
-10 2.4000776e-13 0
-10 9.9729595e-11 0
-10 -3.0350609e-06 0
-10 -0.00044115418 0
-10 0.00044115418 0
-10 3.0350609e-06 0
-10 -9.9729631e-11 0
-10 -2.4002935e-13 0
-10 2.9420909e-17 0
-10 -1.7783509e-18 0
-10 -4.1916793e-19 0
-10 -1.2645155e-16 0
-10 2.9652831e-16 0
-10 -2.5535782e-16 0
-10 -4.5229597e-18 0
-10 2.4692175e-16 0
-10 -2.5440318e-16 0
-10 -1.02914e-17 0
-10 5.3661934e-18 0
-10 2.641774e-16 0
-10 -2.6437523e-16 0
-10 -9.1285152e-19 0
-10 1.0312703e-17 0
-10 2.4635267e-16 0
-10 -2.5712284e-16 0
-10 2.4000719e-13 0
-10 9.9729607e-11 0
-10 -3.0350609e-06 0
-10 -0.00044115418 0
-10.000003 0.00044115443 0
-10.000003 3.0350917e-06 0
-10.000003 -9.9730031e-11 0
-10.000003 -2.400313e-13 0
-10.000003 2.9519371e-17 0
-10.000003 -1.7687125e-18 0
-10.000003 -4.2430181e-19 0
-10.000003 -1.265304e-16 0
-10.000003 2.9653197e-16 0
-10.000003 -2.5537143e-16 0
-10.000003 -4.5522376e-18 0
-10.000003 2.4686006e-16 0
-10.000003 -2.5451743e-16 0
-10.000003 -1.0196066e-17 0
-10.000003 5.4040066e-18 0
-10.000003 2.6422207e-16 0
-10.000003 -2.644042e-16 0
-10.000003 -9.1274481e-19 0
-10.000003 1.0329618e-17 0
-10.000003 2.4629603e-16 0
-10.000003 -2.5715116e-16 0
-10.000003 2.4000895e-13 0
-10.000003 9.9730013e-11 0
-10.000003 -3.0350917e-06 0
-10.000003 -0.00044115443 0
-10.000417 0.00041680108 0
-10.000441 3.0357895e-06 0
-10.000441 -9.6157251e-11 0
-10.000441 -2.4008438e-13 0
-10.000441 2.909992e-17 0
-10.000441 -1.6367328e-18 0
-10.000441 -4.6419478e-19 0
-10.000441 -1.2354481e-16 0
-10.000441 2.8897923e-16 0
-10.000441 -2.4896849e-16 0
-10.000441 -4.6729056e-18 0
-10.000441 2.4030409e-16 0
-10.000441 -2.4853526e-16 0
-10.000441 -9.6676498e-18 0
-10.000441 5.5335839e-18 0
-10.000441 2.5771677e-16 0
-10.000441 -2.5774119e-16 0
-10.000441 -9.1284618e-19 0
-10.000441 1.015055e-17 0
-10.000441 2.3983762e-16 0
-10.000441 -2.507723e-16 0
-10.000441 2.4006101e-13 0
-10.000441 9.6157236e-11 0
-10.000441 -3.0357895e-06 0
-10.000417 -0.00041680108 0
9.9996275 0.00042125217 0
9.9996091 3.0356991e-06 0
9.9996091 -9.6673165e-11 0
9.9996091 -2.4007645e-13 0
9.9996091 2.8524265e-17 0
9.9996091 -1.7418836e-18 0
9.9996091 -4.0871125e-19 0
9.9996091 -1.2345437e-16 0
9.9996091 2.8992161e-16 0
9.9996091 -2.4959855e-16 0
9.9996091 -4.2737051e-18 0
9.9996091 2.4164276e-16 0
9.9996091 -2.4838501e-16 0
9.9996091 -1.0289269e-17 0
9.9996091 5.1306479e-18 0
9.9996091 2.5814359e-16 0
9.9996091 -2.5842384e-16 0
9.9996091 -9.1281483e-19 0
9.9996091 1.0078367e-17 0
9.9996091 2.4091215e-16 0
9.9996091 -2.5114709e-16 0
9.9996091 2.4005518e-13 0
9.9996091 9.6673142e-11 0
9.9996091 -3.0356991e-06 0
9.9996275 -0.00042125217 0
9.9999972 0.00044115442 0
9.9999972 3.0350889e-06 0
9.9999972 -9.9730004e-11 0
9.9999972 -2.4003032e-13 0
9.9999972 2.83968e-17 0
9.9999972 -1.973942e-18 0
9.9999972 -3.539911e-19 0
9.9999972 -1.2575329e-16 0
9.9999972 2.9659539e-16 0
9.9999972 -2.5518282e-16 0
9.9999972 -3.9375689e-18 0
9.9999972 2.4789364e-16 0
9.9999972 -2.5303683e-16 0
9.9999972 -1.1258e-17 0
9.9999972 4.7456214e-18 0
9.9999972 2.6365504e-16 0
9.9999972 -2.6421718e-16 0
9.9999972 -9.1295956e-19 0
9.9999972 1.0161806e-17 0
9.9999972 2.4683906e-16 0
9.9999972 -2.5647587e-16 0
9.9999972 2.400098e-13 0
9.9999972 9.9729988e-11 0
9.9999972 -3.0350889e-06 0
9.9999972 -0.00044115442 0
10 0.00044115418 0
10 3.0350609e-06 0
10 -9.972963e-11 0
10 -2.4002912e-13 0
10 2.8571704e-17 0
10 -1.9343449e-18 0
10 -3.7057901e-19 0
10 -1.2585785e-16 0
10 2.9659852e-16 0
10 -2.5520717e-16 0
10 -4.0430528e-18 0
10 2.4772971e-16 0
10 -2.532811e-16 0
10 -1.1081625e-17 0
10 4.8369894e-18 0
10 2.6376001e-16 0
10 -2.6425713e-16 0
10 -9.1290506e-19 0
10 1.0202579e-17 0
10 2.4674998e-16 0
10 -2.5657566e-16 0
10 2.4000827e-13 0
10 9.9729606e-11 0
10 -3.0350609e-06 0
10 -0.00044115418 0
10 0.00044115418 0
10 3.0350609e-06 0
10 -9.9729619e-11 0
10 -2.4002905e-13 0
10 2.8339411e-17 0
10 -1.9949233e-18 0
10 -3.6072201e-19 0
10 -1.2569582e-16 0
10 2.9658001e-16 0
10 -2.5517886e-16 0
10 -3.91868e-18 0
10 2.479383e-16 0
10 -2.5296772e-16 0
10 -1.1324256e-17 0
10 4.7236685e-18 0
10 2.6365955e-16 0
10 -2.6421363e-16 0
10 -9.1231235e-19 0
10 1.0146286e-17 0
10 2.4688419e-16 0
10 -2.5649082e-16 0
10 2.4000859e-13 0
10 9.9729595e-11 0
10 -3.0350609e-06 0
10 -0.00044115418 0
10 0.00044115418 0
10 3.0350609e-06 0
10 -9.9729619e-11 0
10 -2.4002908e-13 0
10 2.8441945e-17 0
10 -1.9670406e-18 0
10 -3.5947348e-19 0
10 -1.2577157e-16 0
10 2.9659371e-16 0
10 -2.5520818e-16 0
10 -3.9744586e-18 0
10 2.4786275e-16 0
10 -2.5309716e-16 0
10 -1.1234643e-17 0
10 4.7777913e-18 0
10 2.6371318e-16 0
10 -2.6419676e-16 0
10 -9.1306652e-19 0
10 1.0152438e-17 0
10 2.4683599e-16 0
10 -2.5653867e-16 0
10 2.4000846e-13 0
10 9.9729595e-11 0
10 -3.0350609e-06 0
10 -0.00044115418 0
10 0.00044115418 0
10 3.0350609e-06 0
10 -9.9729619e-11 0
10 -2.4002907e-13 0
10 2.8468168e-17 0
10 -1.9756914e-18 0
10 -3.7455763e-19 0
10 -1.2578476e-16 0
10 2.9660638e-16 0
10 -2.5521052e-16 0
10 -3.9757572e-18 0
10 2.4784548e-16 0
10 -2.5312519e-16 0
10 -1.1193419e-17 0
10 4.8076295e-18 0
10 2.636871e-16 0
10 -2.642498e-16 0
10 -9.123256e-19 0
10 1.0173798e-17 0
10 2.4680543e-16 0
10 -2.5653036e-16 0
10 2.4000845e-13 0
10 9.9729595e-11 0
10 -3.0350609e-06 0
10 -0.00044115418 0
10 0.00044115418 0
10 3.0350609e-06 0
10 -9.9729619e-11 0
10 -2.4002911e-13 0
10 2.8487463e-17 0
10 -1.9508697e-18 0
10 -3.7592592e-19 0
10 -1.2577332e-16 0
10 2.965918e-16 0
10 -2.552166e-16 0
10 -3.992859e-18 0
10 2.4783321e-16 0
10 -2.5317101e-16 0
10 -1.1190998e-17 0
10 4.7846764e-18 0
10 2.6376206e-16 0
10 -2.6423164e-16 0
10 -9.1302789e-19 0
10 1.0158885e-17 0
10 2.4681839e-16 0
10 -2.5656084e-16 0
10 2.4000838e-13 0
10 9.9729595e-11 0
10 -3.0350609e-06 0
10 -0.00044115418 0
10 0.00044115418 0
10 3.0350609e-06 0
10 -9.9729619e-11 0
10 -2.4002904e-13 0
10 2.8424593e-17 0
10 -1.9824128e-18 0
10 -3.7107145e-19 0
10 -1.2574015e-16 0
10 2.9657774e-16 0