# vtk DataFile Version 4.0
hesp visualization file
ASCII
DATASET UNSTRUCTURED_GRID
POINTS 1250 double
34.374458 4.5524854 4
30.669509 1.1754287 4
33.874176 5.1820689 4
31.10839 3.2381007 4
29.834502 5.3284583 4
30.824616 6.9561083 4
31.565296 7.6681759 4
31.414714 9.0311932 4
30.495144 10.081 4
30.498466 11.224419 4
29.779114 12.715876 4
31.240585 14.142602 4
32.104931 15.599589 4
31.219825 15.034124 4
30.498445 16.839891 4
30.498481 17.959401 4
30.496253 19.09654 4
30.199645 19.807238 4
31.451116 19.842037 4
30.32154 20.089851 4
32.511561 22.820825 4
32.800633 25.515404 4
35.236537 24.131715 4
30.74705 27.707748 4
33.439037 26.538298 4
30.134964 -7.8205095 4
33.975245 1.8728806 4
31.02008 -0.6687859 4
32.869799 4.8437143 4
34.355827 5.7279184 4
30.663667 7.1857179 4
31.086843 7.0067982 4
30.73653 10.013744 4
31.618872 10.121291 4
30.828569 11.224816 4
31.549042 12.005614 4
30.00913 12.934965 4
29.892329 14.445848 4
30.01525 16.258268 4
30.827351 16.83422 4
30.827575 17.960083 4
31.614314 19.069993 4
30.825054 18.777452 4
30.153037 21.693817 4
30.893043 22.250783 4
30.990972 23.278855 4
30.72202 23.925699 4
31.025268 29.849956 4
33.978162 27.304543 4
30.134964 37.004523 4
31.827319 -0.27601134 4
32.909873 4.3434569 4
30.37936 6.2562714 4
32.334436 5.5884058 4
31.65182 4.5450823 4
30.088307 8.8165465 4
32.022831 11.390662 4
32.858177 8.6299691 4
32.357823 10.094665 4
31.729744 11.205351 4
31.048724 12.542474 4
32.643546 13.959741 4
33.018824 15.767167 4
32.602081 15.16221 4
31.824042 16.839306 4
31.824246 17.958719 4
32.358252 19.090921 4
31.993552 21.605216 4
32.021794 18.157271 4
31.055941 19.532344 4
31.931342 23.676974 4
34.270498 24.345848 4
31.563869 24.325125 4
33.297671 25.402425 4
31.828329 29.458219 4
31.590676 -1.9835416 4
30.923855 -3.8352078 4
31.708211 2.8131385 4
33.529445 3.8698522 4
28.949249 6.0978791 4
31.252873 8.6319422 4
33.126217 8.7303998 4
31.400329 9.621588 4
32.975291 11.815279 4
32.945802 11.222346 4
32.55722 11.851641 4
31.254559 13.212128 4
30.352044 14.166048 4
31.256073 15.974352 4
32.154311 16.834563 4
32.945196 17.96079 4
33.946859 18.781885 4
31.683652 19.356475 4
33.378489 20.319234 4
30.070433 23.137603 4
32.104363 24.589061 4
33.579271 25.516046 4
31.676257 26.360982 4
30.923858 33.019221 4
31.590676 31.167555 4
32.833815 6.288444 4
31.531046 4.1446189 4
30.962347 1.0487546 4
35.891237 4.0588165 4
32.729305 7.7601672 4
31.09613 5.9673152 4
32.257591 8.3582256 4
32.886878 9.2046943 4
32.528863 9.7470414 4
33.002497 12.755695 4
32.575034 12.797579 4
33.020659 14.42324 4
32.569036 15.567439 4
32.437728 16.59359 4
33.110656 16.825764 4
33.253634 17.134881 4
32.145989 19.737287 4
32.460417 20.442526 4
31.890568 22.256794 4
31.602711 21.626695 4
31.432527 21.210709 4
34.171562 22.679688 4
30.947364 28.118272 4
31.520099 25.038853 4
34.739233 24.546205 4
30.760395 -1.801284 4
32.412104 -2.7191608 4
36.154412 4.7835133 4
31.252595 7.4723187 4
33.971144 6.9680409 4
31.764544 6.8896784 4
33.025895 8.4708302 4
33.196824 9.135194 4
32.950158 10.106321 4
34.6058 10.614175 4
33.516532 12.146954 4
33.613216 12.707789 4
33.865943 12.95081 4
34.02313 15.947104 4
34.012007 16.191453 4
33.342647 16.903649 4
32.961028 19.076305 4
32.788297 19.998442 4
32.734428 20.985455 4
31.488494 22.000909 4
33.69798 21.893089 4
31.130359 22.464175 4
35.190783 23.123419 4
32.412329 31.903236 4
30.760392 30.985299 4
31.511876 2.1276547 4
36.456307 3.2637426 4
30.714498 1.8327832 4
33.69395 5.4514005 4
31.116815 5.5716798 4
34.27125 7.0648141 4
35.223324 7.39704 4
33.684665 9.0020205 4
33.684498 10.102181 4
33.683476 11.224535 4
34.437102 12.503758 4
33.73289 13.798241 4
33.360999 14.827659 4
34.050305 15.046709 4
34.553302 16.848812 4
33.684324 17.959417 4
33.801526 19.46105 4
33.684347 20.195831 4
34.549258 21.5656 4
32.649841 22.065565 4
31.442038 22.404205 4
33.838658 24.110339 4
30.635236 27.272261 4
36.452876 25.919723 4
31.540884 27.05233 4
38.03547 -4.9146611 4
33.765593 2.9986322 4
35.913955 2.0273626 4
33.798872 6.1194475 4
34.948742 6.0787342 4
34.711553 6.2515428 4
34.243683 8.3712839 4
35.597773 8.9623859 4
34.811646 10.106051 4
34.807232 11.224587 4
34.808201 12.311033 4
34.807188 12.918622 4
35.907879 13.619219 4
35.424993 16.1868 4
34.807463 16.836766 4
34.807264 17.95939 4
34.811318 19.077772 4
35.599219 20.203246 4
35.554077 20.44691 4
33.854571 22.382654 4
36.535803 23.557382 4
33.297407 22.602529 4
35.912004 27.155547 4
33.80971 26.251841 4
38.03547 34.098674 4
32.716475 2.6103872 4
32.691935 1.7654809 4
37.211833 2.0505108 4
36.21703 5.7164199 4
36.561586 6.1577664 4
36.721091 6.80071 4
35.051804 8.0809071 4
35.823223 10.734482 4
35.787882 10.086521 4
35.802451 11.224568 4
35.801281 12.373905 4
35.689362 13.400251 4
34.665646 15.530617 4
35.128724 15.465213 4
35.802441 16.837001 4
35.802453 17.959438 4
35.595395 19.127459 4
35.925674 18.456865 4
35.019455 21.245459 4
35.18982 21.982112 4
34.681303 22.355962 4
37.09089 23.900759 4
37.233953 27.147657 4
32.69205 27.418097 4
32.212817 25.96244 4
32.138367 0.94817071 4
34.436971 -2.05864 4
35.634561 2.6308688 4
35.933482 4.4608193 4
36.162151 8.0148379 4
35.493611 8.2117377 4
36.851311 7.7265666 4
35.709928 9.6983536 4
36.133599 10.101724 4
36.133931 11.224603 4
36.133953 12.343585 4
36.151467 13.323843 4
35.269302 14.165933 4
36.152995 15.86423 4
36.13394 16.836908 4
36.133931 17.959413 4
36.133699 19.082323 4
35.827665 19.391172 4
36.836702 21.418876 4
36.733357 23.058517 4
36.139368 21.215685 4
36.016491 24.643413 4
35.636989 26.549682 4
34.436972 31.242651 4
32.124426 28.203598 4
31.125951 0.44002882 4
35.214783 1.8912036 4
37.021081 5.2634596 4
34.90402 3.1701884 4
38.191972 5.1097281 4
36.725626 7.3381071 4
36.416764 8.7751196 4
36.293945 9.3685987 4
37.129481 10.102433 4
37.129748 11.22462 4
37.129737 12.349556 4
37.110487 13.576267 4
37.317966 15.535382 4
36.970805 15.700519 4
37.129749 16.836944 4
37.129748 17.959393 4
37.129546 19.081623 4
36.281314 19.818371 4
36.439698 20.403936 4
36.777428 21.733278 4
37.26097 24.216124 4
34.998979 26.222122 4
35.912983 24.232225 4
35.203117 27.291049 4
31.136142 28.787601 4
33.129074 0.18756154 4
36.049914 0.53851483 4
37.083651 7.8191717 4
35.814634 3.6777316 4
35.625371 6.2281745 4
37.786299 6.1356281 4
37.59311 7.4735594 4
37.461102 8.9794589 4
37.460844 10.102161 4
37.460843 11.22462 4
37.460843 12.346939 4
37.460902 13.457465 4
37.353779 13.858952 4
37.462569 15.72885 4
37.460843 16.836927 4
37.460843 17.959393 4
37.460844 19.081852 4
37.461101 20.204406 4
37.593121 21.710627 4
38.003102 22.993829 4
37.225579 22.549642 4
35.805276 25.512577 4
37.1274 21.356388 4
36.053049 28.656881 4
33.129095 28.996479 4
33.992038 1.1337269 4
34.742743 1.3693146 4
38.595116 2.7413474 4
39.002396 5.7656921 4
36.774868 5.7270483 4
37.694814 7.0031913 4
38.27817 8.0998278 4
38.457362 8.9798425 4
38.457407 10.102157 4
38.457408 11.224621 4
38.457408 12.34718 4
38.457251 13.478209 4
37.670714 14.70785 4
38.457215 15.705615 4
38.457408 16.836933 4
38.457408 17.959393 4
38.457407 19.081856 4
38.45736 20.20427 4
38.279081 21.083991 4
37.696267 22.17451 4
37.603925 23.300045 4
38.952172 23.659235 4
38.583475 26.42201 4
34.751314 27.826021 4
33.992053 28.050279 4
34.882282 0.34615523 4
37.813423 1.7483175 4
36.471874 2.6613898 4
36.944163 4.4132118 4
38.027699 5.8483604 4
39.040962 6.2401994 4
38.787854 7.8573335 4
38.787627 8.9797058 4
38.787627 10.102158 4
38.787627 11.22462 4
38.787627 12.347082 4
38.787628 13.469109 4
38.847489 14.323877 4
38.787629 15.714927 4
38.787627 16.83693 4
38.787627 17.959393 4
38.787627 19.081855 4
38.787627 20.204308 4
38.787854 21.326683 4
39.051547 22.950193 4
37.826119 23.427818 4
36.943846 24.766784 4
36.475295 26.510599 4
37.810617 27.431116 4
34.882654 28.832898 4
37.381692 0.69272327 4
36.450193 1.6618104 4
37.211487 2.7450232 4
38.112512 4.8220261 4
39.52073 4.6508729 4
39.487418 7.0307708 4
39.785068 7.8572179 4
39.785102 8.97969 4
39.785103 10.102158 4
39.785103 11.22462 4
39.785103 12.347083 4
39.785102 13.469847 4
39.719311 14.775565 4
39.785103 15.71416 4
39.785103 16.836931 4
39.785103 17.959393 4
39.785103 19.081855 4
39.785102 20.204323 4
39.785068 21.326791 4
39.47528 22.151469 4
39.060893 23.35005 4
38.104418 24.335874 4
37.21224 26.441589 4
36.45693 27.539505 4
37.388771 28.471402 4
37.690366 0.72785931 4
37.459806 2.3221493 4
39.094847 5.3596096 4
39.714518 3.5902983 4
40.32932 6.2984541 4
40.114526 6.7354048 4
40.114281 7.8571823 4
40.114281 8.9796964 4
40.114281 10.102158 4
40.114281 11.22462 4
40.114281 12.347083 4
40.114281 13.469545 4
40.114496 14.583188 4
40.11428 15.714468 4
40.114281 16.836931 4
40.114281 17.959393 4
40.114281 19.081855 4
40.114281 20.204317 4
40.114281 21.326834 4
40.114535 22.448192 4
40.17213 23.840087 4
39.664648 25.590928 4
39.133092 23.882149 4
37.416914 26.870749 4
37.685938 28.474835 4
38.481822 1.1274488 4
38.481258 2.2461059 4
41.83611 2.7897828 4
41.453105 5.4290661 4
40.319138 5.5728678 4
41.112487 6.7341144 4
41.112534 7.857269 4
41.112535 8.9796964 4
41.112535 10.102158 4
41.112535 11.22462 4
41.112535 12.347083 4
41.112535 13.469545 4
41.112469 14.597942 4
41.112535 15.714469 4
41.112535 16.836931 4
41.112535 17.959393 4
41.112535 19.081855 4
41.112535 20.204317 4
41.112534 21.326742 4
41.112522 22.44991 4
41.045806 23.396778 4
41.482476 23.812563 4
41.81827 26.385469 4
38.481366 26.938154 4
38.481822 28.056565 4
39.60432 1.1274483 4
39.605208 2.2474687 4
39.616234 3.0134169 4
40.521507 4.4320458 4
41.446313 5.6993194 4
41.440842 6.7347291 4
41.440842 7.8572344 4
41.440842 8.9796964 4
41.440842 10.102158 4
41.440842 11.22462 4
41.440842 12.347083 4
41.440842 13.469545 4
41.440842 14.592009 4
41.440842 15.714469 4
41.440842 16.836931 4
41.440842 17.959393 4
41.440842 19.081855 4
41.440842 20.204317 4
41.440842 21.326779 4
41.440841 22.449283 4
41.44718 23.535411 4
40.52113 24.749705 4
39.632698 26.142878 4
39.605221 26.936518 4
39.60432 28.056565 4
40.727687 1.1292798 4
40.983564 1.329588 4
40.726675 3.3671314 4
[...]
POINT_DATA 1250
SCALARS m double
LOOKUP_TABLE default
1
1
1
1
1
1
1
1
1
1
1
1
1
1
1
1
1
1
1
1
1
1
1
1
1
1
1
1
1
1
1
1
1
1
1
1
1
1
1
1
1
1
1
1
1
1
1
1
1
1
1
1
1
1
1
1
1
1
1
1
1
1
1
1
1
1
1
1
1
1
1
1
1
1
1
1
1
1
1
1
1
1
1
1
1
1
1
1
1
1
1
1
1
1
1
1
1
1
1
1
1
1
1
1
1
1
1
1
1
1
1
1
1
1
1
1
1
1
1
1
1
1
1
1
1
1
1
1
1
1
1
1
1
1
1
1
1
1
1
1
1
1
1
1
1
1
1
1
1
1
1
1
1
1
1
1
1
1
1
1
1
1
1
1
1
1
1
1
1
1
1
1
1
1
1
1
1
1
1
1
1
1
1
1
1
1
1
1
1
1
1
1
1
1
1
1
1
1
1
1
1
1
1
1
1
1
1
1
1
1
1
1
1
1
1
1
1
1
1
1
1
1
1
1
1
1
1
1
1
1
1
1
1
1
1
1
1
1
1
1
1
1
1
1
1
1
1
1
1
1
1
1
1
1
1
1
1
1
1
1
1
1
1
1
1
1
1
1
1
1
1
1
1
1
1
1
1
1
1
1
1
1
1
1
1
1
1
1
1
1
1
1
1
1
1
1
1
1
1
1
1
1
1
1
1
1
1
1
1
1
1
1
1
1
1
1
1
1
1
1
1
1
1
1
1
1
1
1
1
1
1
1
1
1
1
1
1
1
1
1
1
1
1
1
1
1
1
1
1
1
1
1
1
1
1
1
1
1
1
1
1
1
1
1
1
1
1
1
1
1
1
1
1
1
1
1
1
1
1
1
1
1
1
1
1
1
1
1
1
1
1
1
1
1
1
1
1
1
1
1
1
1
1
1
1
1
1
1
1
1
1
1
1
1
1
1
1
1
1
1
1
1
1
1
1
1
1
1
1
1
1
1
1
1
1
1
1
1
1
1
1
1
1
1
1
1
1
1
1
1
1
1
1
1
1
1
1
1
1
1
1
1
1
1
1
1
1
1
1
1
1
1
1
1
1
1
1
1
1
1
1
1
1
1
1
1
1
1
1
1
1
1
1
1
1
1
1
1
1
1
1
1
1
1
1
1
1
1
1
1
1
1
1
1
1
1
1
1
1
1
1
1
1
1
1
1
1
1
1
1
1
1
1
1
1
1
1
1
1
1
1
1
1
1
1
1
1
1
1
1
1
1
1
1
1
1
1
1
1
1
1
1
1
1
1
1
1
1
1
1
1
1
1
1
1
1
1
1
1
1
1
1
1
1
1
1
1
1
1
1
1
1
1
1
1
1
1
1
1
1
1
1
1
1
1
1
1
1
1
1
1
1
1
1
1
1
1
1
1
1
1
1
1
1
1
1
1
1
1
1
1
1
1
1
1
1
1
1
1
1
1
1
1
1
1
1
1
1
1
1
1
1
1
1
1
1
1
1
1
1
1
1
1
1
1
1
1
1
1
1
1
1
1
1
1
1
1
1
1
1
1
1
1
1
1
1
1
1
1
1
1
1
1
1
1
1
1
1
1
1
1
1
1
1
1
1
1
1
1
1
1
1
1
1
1
1
1
1
1
1
1
1
1
1
1
1
1
1
1
1
1
1
1
1
1
1
1
1
1
1
1
1
1
1
1
1
1
1
1
1
1
1
1
1
1
1
1
1
1
1
1
1
1
1
1
1
1
1
1
1
1
1
1
1
1
1
1
1
1
1
1
1
1
1
1
1
1
1
1
1
1
1
1
1
1
1
1
1
1
1
1
1
1
1
1
1
1
1
1
1
1
1
1
1
1
1
1
1
1
1
1
1
1
1
1
1
1
1
1
1
1
1
1
1
1
1
1
1
1
1
1
1
1
1
1
1
1
1
1
1
1
1
1
1
1
1
1
1
1
1
1
1
1
1
1
1
1
1
1
1
1
1
1
1
1
1
1
1
1
1
1
1
1
1
1
1
1
1
1
1
1
1
1
1
1
1
1
1
1
1
1
1
1
1
1
1
1
1
1
1
1
1
1
1
1
1
1
1
1
1
1
1
1
1
1
1
1
1
1
1
1
1
1
1
1
1
1
1
1
1
1
1
1
1
1
1
1
1
1
1
1
1
1
1
1
1
1
1
1
1
1
1
1
1
1
1
1
1
1
1
1
1
1
1
1
1
1
1
1
1
1
1
1
1
1
1
1
1
1
1
1
1
1
1
1
1
1
1
1
1
1
1
1
1
1
1
1
1
1
1
1
1
1
1
1
1
1
1
1
1
1
1
1
1
1
1
1
1
1
1
1
1
1
1
1
1
1
1
1
1
1
1
1
1
1
1
1
1
1
1
1
1
1
1
1
1
1
1
1
1
1
1
1
1
1
1
1
1
1
1
1
1
1
1
1
1
1
1
1
1
1
1
1
1
1
1
1
1
1
1
1
1
1
1
1
1
1
1
1
1
1
1
1
1
1
1
1
1
1
1
1
1
1
1
1
1
1
1
1
1
1
1
1
1
1
1
1
1
1
1
1
1
1
1
1
1
1
1
1
1
1
1
1
1
1
1
1
1
1
1
1
1
1
1
1
1
1
1
1
1
1
1
1
1
1
1
1
1
1
1
1
1
1
1
1
1
1
1
1
1
1
1
1
1
1
1
1
1
1
1
1
1
1
1
1
1
1
1
1
1
1
1
1
1
1
1
1
1
1
1
1
1
1
1
1
1
1
1
1
1
1
1
1
1
1
1
1
1
1
1
1
1
1
1
1
1
1
1
1
1
1
1
1
1
1
1
1
1
1
1
VECTORS v double
3.5640023 7.5117633 0
4.5415733 -10.043917 0
4.3666971 3.2435582 0
-7.6421252 -7.0252864 0
-3.3920653 -4.5409465 0
-3.0608965 12.824025 0
-5.5734277 -4.9729972 0
9.986529 0.27079023 0
8.3471042 0.15138351 0
10.049152 -0.0031078232 0
-9.1409175 4.1192971 0
8.6554075 5.0509074 0
9.078963 4.4640371 0
8.3216547 -4.9588975 0
10.047424 0.063508548 0
10.049715 0.00026849838 0
10.029761 0.15747968 0
-3.1212845 -7.9410913 0
2.5217649 1.600768 0
3.2496828 -4.6973482 0
7.2361536 -5.2321256 0
7.6937461 8.4638726 0
14.93058 -5.4080329 0
6.3935792 7.6433505 0
-4.3526109 8.7706462 0
-0.51798608 -13.726701 0
-9.4761186 3.3029931 0
5.4287885 -9.7852604 0
8.6025201 8.3965477 0
11.901047 -1.4434432 0
-7.3384129 3.9700507 0
-2.552859 -4.8254592 0
-2.210685 7.504423 0
9.9767743 0.16396385 0
-10.031456 0.0045401378 0
9.2362637 -3.7084612 0
-9.3216715 -3.9798696 0
4.8146403 9.0687476 0
-9.2251102 3.9719087 0
-10.051257 -0.059627629 0
-10.048183 0.018146235 0
9.8458549 -0.095348402 0
-2.6469181 -13.275712 0
-9.5377327 1.9041477 0
-7.774655 -2.6703613 0
7.6798702 10.588977 0
-8.1410695 -6.4722044 0
5.4426481 9.7811219 0
-9.4340236 -3.4149218 0
-0.51797891 13.726701 0
0.18664633 -9.2139046 0
8.2717737 0.86623073 0
-9.8897949 2.2843846 0
2.6442966 0.55978372 0
8.5190382 -5.5041421 0
-11.386952 2.7221196 0
7.4883018 11.669195 0
6.0324948 11.811812 0
-9.9931964 -0.29565147 0
0.60018246 -2.1116089 0
-9.8396371 2.0109604 0
9.2970319 3.5586026 0
-2.1733043 12.621734 0
7.3378238 -6.591226 0
10.048845 0.054151347 0
9.8224948 -0.20389872 0
-10.007266 0.33625239 0
5.5317882 9.4182555 0
-1.2365512 -7.0201766 0
-5.7026944 -13.837803 0
10.085904 0.4473629 0
8.0794404 3.70196 0
-0.4856868 5.3556315 0
6.5044532 0.63227154 0
0.19333386 9.1874072 0
-0.5005765 -3.681281 0
6.8351056 -10.619247 0
-1.374361 9.2465895 0
5.9792569 -1.0686818 0
-13.343494 -2.7964027 0
0.95227377 9.7914544 0
3.1693712 0.097160564 0
-8.5408793 5.1137929 0
-0.40764608 8.1812532 0
10.024948 0.013790483 0
-0.10073579 -10.646 0
-9.88119 -1.7912549 0
-9.8096744 -1.9598011 0
-9.8633579 1.7594008 0
-9.9795948 -0.11575133 0
9.9949818 0.018162047 0
3.4776396 -4.0948037 0
-5.1846344 -12.628306 0
9.5448957 -8.054932 0
-10.800745 8.5203937 0
-2.1247069 -2.9422892 0
12.467897 4.4315104 0
-2.1081507 -9.4520879 0
6.8351121 10.619253 0
-0.50057791 3.6812816 0
-11.57836 10.765919 0
8.2479557 4.3317241 0
10.052975 -5.8131852 0
9.3369881 -4.982157 0
-9.4924924 -7.521018 0
1.352687 -11.802554 0
-9.1384532 -5.3351411 0
1.9834604 8.2140785 0
-4.5342679 12.219143 0
2.3654181 14.703925 0
-6.9277052 12.303179 0
-2.4099586 10.342317 0
-2.6637879 3.9233323 0
-9.1668439 9.6813648 0
-7.9407501 -5.7307495 0
-0.85253453 -4.5238204 0
7.7779568 6.1022738 0
-7.9964484 2.2237641 0
-6.0645327 7.2990865 0
-1.8821231 -9.7046112 0
-6.3574539 -10.360227 0
0.58756086 -11.920547 0
8.7238441 4.7573089 0
8.1611885 -4.3193767 0
5.8143691 -6.827196 0
-1.1187649 -6.3286439 0
-1.9958505 -10.9266 0
2.2224662 -8.666961 0
-10.548404 10.578416 0
-11.848401 5.065668 0
-3.2410745 -5.6911976 0
10.858076 0.79138725 0
8.1054567 8.3530168 0
10.041054 0.21429809 0
13.466261 -7.0297277 0
-9.1613372 -4.294936 0
2.7757658 -8.5519861 0
2.2996888 -9.5517857 0
2.3616125 5.7373206 0
4.2970413 -15.892024 0
8.5113775 -1.0101009 0
10.178271 -0.27078183 0
-3.2903079 -6.1763572 0
-7.8221065 2.9094331 0
-10.048828 -5.1758169 0
-8.1636271 3.8593346 0
-12.215033 1.6998994 0
-10.30466 -7.6874881 0
-1.9952623 10.926768 0
-1.1187702 6.3286521 0
-5.8241387 -5.1338583 0
1.8865249 3.4277497 0
-6.4043598 -6.8825487 0
6.3599622 6.3075292 0
-7.4063811 -9.1210962 0
1.1287435 1.7280189 0
11.491592 0.72207676 0
-10.017772 0.2384926 0
-10.005784 0.0024038511 0
-10.009762 -0.0076706706 0
9.1465269 3.7974722 0
-9.4882747 3.521286 0
1.9282037 -5.8643201 0
-1.0924637 -12.493632 0
11.178178 0.36153689 0
-10.009825 0.00076665576 0
-5.2042711 15.819986 0
-10.047137 -0.075673997 0
1.2823962 1.0212149 0
-11.423715 -5.355917 0
-3.0074319 -2.6972195 0
3.9487692 -3.9771922 0
-6.8861459 6.5478493 0
1.8695894 -3.4224591 0
-5.0752815 5.2850368 0
4.8370531 -9.9977527 0
-5.9082109 -7.3036209 0
1.7214525 -3.4476776 0
-1.2175284 -1.9009689 0
-6.2079895 6.0039769 0
6.9481229 -7.2170087 0
-5.4223081 6.5308226 0
10.001515 -0.19734377 0
-9.9080259 0.10308738 0
-10.007119 -0.004025641 0
-10.006072 -0.75303903 0
-9.9592483 -10.441057 0
6.1962626 -2.0585855 0
5.9462713 8.9358149 0
-9.0511323 -0.047548281 0
-10.004333 -3.6384253e-05 0
-9.9052606 -0.10342423 0
10.764152 -4.3524591 0
9.2429498 -6.1269701 0
-10.148828 -0.38850446 0
7.3710083 -0.6550494 0
-3.5584669 -1.4738843 0
1.7163037 3.4434185 0
-5.4744137 8.0844192 0
4.8370532 9.9977527 0
-1.2925533 -6.4924232 0
-9.8579054 -1.5960527 0
-4.2065598 -12.038393 0
0.32161869 6.9553655 0
2.6490089 -3.1111435 0
10.094056 0.44424628 0
-9.3977449 2.5618058 0
0.93459533 18.613734 0
9.5085861 -0.48032114 0
10.04691 -0.010234839 0
10.020264 0.65795165 0
8.1826112 0.30257121 0
-5.4330285 7.1894255 0
-6.6268108 -6.3435612 0
10.045155 0.00052388902 0
10.047795 0.0077758384 0
3.2185324 1.526735 0
6.2814634 -19.272173 0
-9.9270686 -1.107654 0
-8.0004612 -5.435618 0
-8.0553316 -5.7983478 0
4.4930484 0.71879483 0
-1.4671549 12.33899 0
-9.8572831 1.5955716 0
-4.2022032 2.9380216 0
1.503411 -1.2087583 0
-3.9332567 -8.2576441 0
2.698264 -3.398149 0
-0.3917074 -0.53347695 0
2.5555372 -9.0804249 0
-7.6240174 13.81521 0
-0.055999129 5.9187365 0
-4.2735295 8.4693217 0
-10.071484 -0.0093254338 0
-10.052124 -0.0029925769 0
-10.050887 -0.070678173 0
-9.6491 -3.0549006 0
-9.6036839 -3.0887008 0
-9.5615454 3.1790212 0
-10.05039 -0.00070164592 0
-10.05229 0.0043139653 0
-10.048905 0.022390063 0
-3.0272173 -9.4665222 0
-1.1802002 -6.9681902 0
7.9175379 6.5771336 0
2.2026313 9.6027916 0
0.1584805 -0.31739266 0
2.6969173 3.3655999 0
-3.9332544 8.2576384 0
1.3393883 0.73132 0
-11.643888 -4.3478193 0
2.8643575 5.3328153 0
2.3311543 2.268025 0
-7.3168116 -7.2860095 0
10.379271 4.0431428 0
-4.6926274 -4.3111614 0
-7.8090823 0.24660175 0
-11.806341 15.695303 0
10.041599 0.0070039574 0
10.046847 -2.2707202e-05 0
10.046624 0.061619567 0
9.6411431 2.6656403 0
10.959685 -0.16223373 0
-3.5630918 6.2288707 0
10.046879 0.00030039935 0
10.046845 2.1358734e-05 0
10.042835 -0.0059189253 0
-12.320213 -15.575166 0
-7.1665567 -0.41678652 0
-5.0946531 3.1130052 0
-0.13189271 7.41382 0
-6.7258819 8.5216105 0
-7.606201 0.52166683 0
2.5407612 -5.4424615 0
-11.514112 4.8926066 0
-7.9805631 -7.1905492 0
-9.7685613 -5.4755363 0
7.5656295 5.5116631 0
-10.892788 0.060446658 0
-9.7422717 7.3230312 0
-7.1267561 5.0915773 0
-6.7612953 -8.1787734 0
-10.000998 -0.0049076712 0
-10.048386 0.00013344284 0
-10.048304 -4.2655095e-06 0
-10.048302 -0.0027746941 0
-10.055278 -0.21032507 0
-0.1934545 -8.8030561 0
-8.0929985 2.559661 0
-10.048306 -9.7976998e-05 0
-10.048306 3.16343e-06 0
-10.048366 -0.00012910344 0
-10.001029 0.0018145598 0
-6.7639175 8.1790844 0
13.084829 -1.3553176 0
0.49371647 -14.097405 0
-10.946483 0.068122516 0
10.04748 -5.0900945 0
-9.7389414 5.571833 0
-7.9803976 7.1907613 0
-9.9997207 0.094131423 0
-6.2338651 -8.6192529 0
3.599518 1.3073207 0
4.0629727 5.6383842 0
-9.6440987 2.4844692 0
-9.6704045 2.8803696 0
6.3269157 6.4950823 0
10.047354 0.0034949945 0
10.047833 -2.9352657e-05 0
10.047839 9.7787028e-07 0
10.047835 0.0024659556 0
10.044438 0.21616099 0
-9.9405841 1.2376771 0
10.043619 -0.22065603 0
10.04783 4.9728671e-05 0
10.047839 -6.7217115e-07 0
10.047832 2.9727017e-05 0
10.047334 -0.00097283685 0
6.3382245 -6.4950608 0
-9.6565105 -2.9475682 0
-0.42837142 4.2527899 0
-8.7769747 -6.6397919 0
3.5328527 -1.4573195 0
-5.9544196 8.8553647 0
-9.9994371 -0.093873544 0
-11.480936 -4.9491679 0
0.8064963 7.9274517 0
-6.5129797 -6.5193484 0
-10.042979 -0.29026467 0
3.4056033 -10.614089 0
-3.7625338 -10.37767 0
-10.005195 0.0036936891 0
-10.046707 0.00016836384 0
-10.046647 3.3791429e-07 0
-10.046648 -7.8861434e-08 0
-10.046647 2.8193053e-06 0
-10.046713 -0.007845448 0
-8.5937473 -5.6297402 0
-10.04671 0.0088887247 0
-10.046648 -4.1724482e-06 0
-10.046648 5.1015067e-08 0
-10.046647 -3.6209156e-07 0
-10.046708 -0.00014986338 0
-10.005241 -0.0036323429 0
-3.4861623 10.521415 0
-9.3739202 -1.507242 0
-10.042087 0.26661642 0
-6.4782096 6.4348863 0
0.70602837 -8.0033632 0
-11.478483 4.9175288 0
-4.7266801 -7.0765644 0
-8.892079 -3.7557071 0
-9.7350175 -2.4849403 0
-9.0820826 -5.1053088 0
-4.0314105 -10.25954 0
3.3383038 8.0279272 0
10.048139 -0.0010870121 0
10.048451 -0.00015976486 0
10.048461 -1.4411438e-09 0
10.048461 4.4877612e-09 0
10.04846 4.848796e-06 0
10.048397 0.0076028217 0
8.5508527 4.633187 0
10.048455 -0.0079843359 0
10.048461 5.4638772e-06 0
10.048461 -6.4865127e-09 0
10.048461 -6.0718043e-10 0
10.048451 0.00015305991 0
10.048129 0.0009787766 0
3.0475841 -8.0999384 0
-4.9330032 -9.3661712 0
-9.8208831 -1.9460068 0
-9.7253182 2.5040344 0
-8.8494516 3.8569276 0
-4.1078946 6.5154628 0
-1.4618778 -7.0055117 0
0.19436888 5.2441572 0
-6.2405953 8.7047962 0
-6.5034614 0.10126958 0
3.5467719 8.1787334 0
-9.9953732 -0.012519741 0
-10.045696 -0.0011087697 0
-10.045643 -7.2030287e-07 0
-10.045643 2.0411876e-09 0
-10.045643 -8.853155e-10 0
-10.045643 1.5832875e-07 0
-10.045631 -8.9526112e-07 0
-10.018728 -0.17673067 0
-10.045681 -7.9601788e-05 0
-10.045643 -5.7309172e-07 0
-10.045643 7.1283591e-10 0
-10.045643 -2.0827509e-09 0
-10.045643 6.761004e-07 0
-10.045693 0.0011527934 0
-10.000622 -0.022323132 0
-8.6369229 5.5999715 0
-7.2724806 -0.2230353 0
2.0692795 2.9283438 0
-2.6027009 -5.4576966 0
-1.9988439 7.5783568 0
-10.001536 0.009600631 0
-10.019124 0.069276445 0
3.3650589 3.7131605 0
5.6812041 5.9003259 0
-9.9966065 -0.41331563 0
10.047405 -0.017239949 0
10.048758 0.00087185345 0
10.048763 -1.4444006e-08 0
10.048763 4.176246e-10 0
10.048763 -4.0655996e-12 0
10.048763 1.0327684e-07 0
10.048764 -4.8573355e-06 0
10.047386 0.14973666 0
10.048764 -3.8243689e-06 0
10.048763 6.2617941e-08 0
10.048763 -4.445329e-12 0
10.048763 -3.9600589e-10 0
10.048763 1.8953204e-08 0
10.048762 -0.00093281517 0
10.04877 0.017338427 0
8.5928172 -4.4864992 0
5.0489029 1.3678853 0
3.1843653 -3.830805 0
-10.016178 -0.054129797 0
-10.001526 -0.0095826719 0
-9.9999307 0.0094952157 0
-9.9930739 0.019014295 0
-9.5129137 -9.0770255 0
-10.018357 -0.38665215 0
-9.7943231 3.0433192 0
-10.045402 -0.001019741 0
-10.045354 4.1575485e-06 0
-10.045352 -7.9118553e-09 0
-10.045352 -8.0332912e-11 0
-10.045352 -1.6903135e-12 0
-10.045352 -1.547041e-08 0
-10.045351 -1.9037975e-06 0
-10.045413 0.00055452707 0
-10.045353 -1.5779309e-06 0
-10.045352 -1.493526e-08 0
-10.045352 -1.1930117e-12 0
-10.045352 8.6288849e-11 0
-10.045352 8.3665016e-09 0
-10.045352 -3.5455777e-06 0
-10.045397 0.0010213089 0
-9.0536779 -8.3412468 0
-10.022349 0.36518824 0
-8.9960062 8.9808643 0
-9.9929533 -0.018953345 0
-9.9999331 -0.0094928154 0
-9.9395803 0.11443122 0
-7.1398897 -10.532402 0
-10.000605 -0.0029752491 0
-9.8473515 1.9425981 0
9.913928 -1.4271147 0
10.048865 0.00069854715 0
10.048884 -1.4636887e-06 0
10.048884 -3.2728148e-10 0
10.048884 -7.2496767e-14 0
10.048884 -1.1524273e-13 0
10.048884 2.0964208e-12 0
10.048884 -1.6335631e-07 0
10.048884 7.3674538e-07 0
10.048884 -1.7504506e-07 0
10.048884 1.7465989e-12 0
10.048884 1.7617244e-13 0
10.048884 3.7863778e-14 0
10.048884 4.9745906e-10 0
10.048884 6.6143055e-08 0
10.04887 -0.00067837921 0
10.045439 -0.040842057 0
-9.855252 -1.8964973 0
-10.000467 0.003068352 0
-6.9894454 10.662719 0
-9.925389 -0.12176584 0
-10.000756 0.009776718 0
-10.018151 0.036039109 0
-10.002738 -0.010549769 0
-7.0632626 -7.8798641 0
-10.04872 -0.027197828 0
-10.045724 8.5286048e-06 0
-10.045729 1.7696907e-07 0
-10.045729 -8.0212278e-11 0
-10.045729 1.4886148e-13 0
-10.045729 -1.8470545e-14 0
-10.045729 1.3434436e-12 0
-10.045729 -5.4480444e-09 0
-10.045729 1.7096726e-08 0
-10.045729 -5.1658002e-09 0
-10.045729 1.5028976e-12 0
-10.045729 6.2250688e-14 0
-10.045729 -6.0353521e-15 0
-10.045729 9.8389302e-11 0
-10.045729 1.8757256e-08 0
-10.045732 6.159083e-06 0
-10.045739 0.022046422 0
-7.2015289 7.7211403 0
-10.003077 0.010925814 0
-10.016485 -0.031023491 0
-10.000838 -0.0098020229 0
-10.000009 0.0094481184 0
-10.000061 7.2546285e-07 0
-10.000317 0.001715485 0
6.9113457 6.2972012 0
10.047731 0.017293478 0
10.047798 8.3549687e-06 0
10.047797 7.543625e-09 0
10.047797 -1.0113575e-13 0
10.047797 -2.8588526e-17 0
10.047797 -3.0036198e-14 0
10.047797 -1.3714333e-14 0
10.047797 -4.3553051e-13 0
10.047797 1.0187076e-12 0
10.047797 -3.5927723e-13 0
10.047797 8.642264e-14 0
10.047797 5.4962311e-14 0
10.047797 -5.8286651e-15 0
10.047797 3.7899579e-14 0
10.047797 -8.6124238e-09 0
10.047797 -5.9896057e-06 0
10.047731 -0.017998406 0
7.0580965 -6.1765045 0
-10.000309 -0.0016263436 0
-10.000057 1.0802936e-06 0
-10.00001 -0.0094479889 0
-10 0.009442992 0
-10.000002 -2.359223e-05 0
-10.000037 4.1407488e-05 0
-10.008773 0.0032947968 0
-10.047279 3.831741e-06 0
-10.047227 -7.57995e-07 0
-10.047227 -1.9196504e-09 0
-10.047227 -1.0197822e-12 0
-10.047227 5.1662141e-15 0
-10.047227 -5.3839145e-15 0
-10.047227 3.5623987e-15 0
-10.047227 -2.5409015e-14 0
-10.047227 6.3255349e-14 0
-10.047227 -3.3996679e-14 0
-10.047227 3.9786894e-15 0
-10.047227 5.4993603e-15 0
-10.047227 -4.7157451e-15 0
-10.047227 7.6750959e-13 0
-10.047227 1.9647906e-09 0
-10.047227 8.2747123e-07 0
-10.047279 -6.1338896e-06 0
-10.009444 -0.0035384873 0
-10.000037 -4.1677691e-05 0
-10.000001 2.3540525e-05 0
-10 -0.009442992 0
-9.9999993 0.0094430028 0
-9.9999993 -2.5482286e-05 0
-10.000001 6.4737169e-07 0
-10.000011 2.8342941e-06 0
-10.000019 3.1709076e-07 0
-10.000019 -1.4641418e-09 0
-10.000019 -4.7450027e-13 0
-10.000019 -5.1795584e-15 0
-10.000019 6.2880119e-15 0
-10.000019 -5.4117659e-15 0
-10.000019 -9.0740297e-17 0
-10.000019 5.2399858e-15 0
-10.000019 -5.3700602e-15 0
-10.000019 -2.2990126e-16 0
-10.000019 1.0879412e-16 0
-10.000019 5.5954871e-15 0
-10.000019 -5.6048688e-15 0
-10.000019 3.8051127e-16 0
-10.000019 2.9535436e-13 0
-10.000019 1.5220553e-09 0
-10.000019 -2.9167617e-07 0
-10.000011 -2.8460746e-06 0
-10.000001 -6.5713028e-07 0
-9.9999993 2.5482286e-05 0
-9.9999993 -0.0094430028 0
-9.9999816 0.0094454077 0
-9.9999748 -2.5216068e-05 0
-9.9999745 -7.0373675e-07 0
-9.9999745 1.0430162e-09 0
-9.9999745 9.3587262e-12 0
-9.9999745 -1.0043735e-13 0
-9.9999745 3.7176819e-16 0
-9.9999745 -2.6762089e-15 0
-9.9999745 6.2883785e-15 0
-9.9999745 -5.4130711e-15 0
-9.9999745 -9.1821021e-17 0
-9.9999745 5.2418473e-15 0
-9.9999745 -5.3844652e-15 0
-9.9999745 -2.2450418e-16 0
-9.9999745 1.0928605e-16 0
-9.9999745 5.5976459e-15 0
-9.9999745 -5.6052634e-15 0
-9.9999745 -1.9398826e-17 0
-9.9999745 -1.8943255e-16 0
-9.9999745 9.6712653e-14 0
-9.9999745 -9.3606164e-12 0
-9.9999745 -1.0431073e-09 0
-9.9999745 7.0373675e-07 0
-9.9999748 2.5216068e-05 0
-9.9999816 -0.0094454077 0
-10.008923 0.0089230639 0
-10.009445 -1.8399423e-05 0
-10.009443 -6.9325792e-07 0
-10.009443 8.4984846e-10 0
-10.009443 1.0751537e-11 0
-10.009443 -8.671431e-15 0
-10.009443 -7.175321e-17 0
-10.009443 -2.6128048e-15 0
-10.009443 6.1283242e-15 0
-10.009443 -5.277113e-15 0
-10.009443 -9.35098e-17 0
-10.009443 5.1034403e-15 0
-10.009443 -5.2567805e-15 0
-10.009443 -2.1360871e-16 0
-10.009443 1.1161393e-16 0
-10.009443 5.4594302e-15 0
-10.009443 -5.4639603e-15 0
-10.009443 -1.9352339e-17 0
-10.009443 2.665943e-16 0
-10.009443 1.1011336e-14 0
-10.009443 -1.0748683e-11 0
-10.009443 -8.4985553e-10 0
-10.009443 6.9325792e-07 0
-10.009445 1.8399423e-05 0
-10.008923 -0.0089230639 0
-3.5077584 7.4521314 0
-5.6898629 -5.2837287 0
-7.4568579 -2.0412217 0
4.9305032 -2.1501368 0
11.24408 1.4547521 0
0.34212565 -0.39051224 0
0.79919585 -8.2688242 0
-9.9962995 -0.4676515 0
-4.9993178 1.7706472 0
-10.049214 0.0068060275 0
8.8121338 -4.7450247 0
-6.7883749 -4.37137 0
3.8446246 8.2028314 0
-8.6565934 5.0474932 0
-10.047981 -0.078169483 0
-10.049834 0.00082271607 0
-10.001773 0.16701054 0
2.1490456 -9.0386537 0
3.6981176 -11.582904 0
-2.4890957 -3.2140504 0
-7.2505261 -5.0755403 0
-5.72655 8.4767202 0
-14.401226 -6.9252386 0
-6.1215891 9.1823321 0
-3.4896159 10.071267 0
0.51798607 -13.726701 0
9.475976 3.3038806 0
-5.4293794 -9.7956976 0
0.73134492 -8.0239604 0
-11.078974 7.6139203 0
8.082982 -4.8630343 0
9.3788054 1.1748249 0
-0.93508539 6.2191786 0
-9.9885559 0.16010172 0
10.047934 -0.026858571 0
-10.74591 4.2012365 0
-5.092961 -8.3855132 0
9.6811183 3.6402572 0
8.9253746 -4.4276673 0
10.045061 0.023837713 0
10.048194 0.018553795 0
-9.9302447 -0.25352179 0
1.9845974 -14.517149 0
-2.6320934 -7.6011574 0
3.1859516 -0.98004984 0
10.296541 5.6146201 0
7.7055692 -6.4756424 0
-5.4425373 9.7787268 0
9.4309867 -3.4222065 0
0.51797891 13.726701 0
-0.18646678 -9.2140158 0
-3.5243286 9.7012993 0
0.53448956 3.8732623 0
9.0764801 2.7226016 0
-9.3824334 3.0842743 0
-2.3141968 10.429189 0
-2.0465277 -3.1975398 0
-1.5141596 1.876874 0
3.551736 7.8191343 0
-4.0957193 13.97846 0
9.2950833 -3.8012673 0
3.1065749 -4.8924423 0
13.285109 3.9468317 0
-9.1028903 4.0295 0
-10.043562 -0.060636587 0
-9.8629381 -0.16501163 0
10.006911 0.34668136 0
-3.7717663 -8.7271325 0
1.269954 -7.0377076 0
-4.6284786 3.7678619 0
-10.081903 0.43193634 0
-5.8579579 4.5251456 0
0.46580741 5.3525189 0
-10.802708 -5.3902786 0
-0.19337232 9.1881168 0
0.50057665 -3.6812808 0
-6.8351056 -10.619248 0
4.6806437 9.24553 0
-6.3810095 -1.4738354 0
3.8953516 5.4407226 0
6.2495655 2.3022302 0
10.246682 7.2917195 0
5.2864338 6.2416791 0
-11.633215 -5.4511743 0