# vtk DataFile Version 4.0
hesp visualization file
ASCII
DATASET UNSTRUCTURED_GRID
POINTS 32 double
7.4013893 1.1513697 4
7.4207953 2.2547988 4
7.4207953 3.3575115 4
7.4013893 4.4609405 4
8.5048419 1.170779 4
8.5132411 2.26314 4
8.5132411 3.3491703 4
8.5048419 4.4415312 4
9.5252098 1.1730058 4
9.5409634 2.2637646 4
9.5409634 3.3485457 4
9.5252098 4.4393045 4
10.29909 1.1514661 4
10.295387 2.2543089 4
10.295387 3.3580013 4
10.29909 4.4608441 4
11.313221 1.1514661 4
11.316924 2.2543089 4
11.316924 3.3580013 4
11.313221 4.4608441 4
12.0871 1.1730058 4
12.071347 2.2637646 4
12.071347 3.3485457 4
12.0871 4.4393045 4
13.107468 1.170779 4
13.099069 2.26314 4
13.099069 3.3491703 4
13.107468 4.4415312 4
14.210921 1.1513697 4
14.191515 2.2547988 4
14.191515 3.3575115 4
14.210921 4.4609405 4
CELLS 0 0
CELL_TYPES 0
POINT_DATA 32
SCALARS m double
LOOKUP_TABLE default
1
1
1
1
1
1
1
1
1
1
1
1
1
1
1
1
1
1
1
1
1
1
1
1
1
1
1
1
1
1
1
1
VECTORS v double
9.9047196 -0.095925636 0
9.7997489 -0.026567331 0
9.7997489 0.026567331 0
9.9047196 0.095925636 0
9.9310647 -0.20002175 0
9.9341079 -0.038878071 0
9.9341079 0.038878071 0
9.9310647 0.20002175 0
-5.2310665 0.2090023 0
-3.3657859 0.1144513 0
-3.3657859 -0.1144513 0
-5.2310665 -0.2090023 0
5.1192345 -0.4031235 0
3.0715935 -0.17358746 0
3.0715935 0.17358746 0
5.1192345 0.4031235 0
-5.1192345 -0.4031235 0
-3.0715935 -0.17358746 0
-3.0715935 0.17358746 0
-5.1192345 0.4031235 0
5.2310665 0.2090023 0
3.3657859 0.1144513 0
3.3657859 -0.1144513 0
5.2310665 -0.2090023 0
-9.9310647 -0.20002175 0
-9.9341079 -0.038878071 0
-9.9341079 0.038878071 0
-9.9310647 0.20002175 0
-9.9047196 -0.095925636 0
-9.7997489 -0.026567331 0
-9.7997489 0.026567331 0
-9.9047196 0.095925636 0
