# vtk DataFile Version 4.0
hesp visualization file
ASCII
DATASET UNSTRUCTURED_GRID
POINTS 1250 double
34.764323 5.3807926 4
31.181093 0.068562971 4
34.351068 5.5595465 4
30.268281 2.4651762 4
29.461078 4.8289086 4
30.546659 7.7628526 4
30.933486 7.1191173 4
32.49719 9.0495682 4
30.085584 10.32267 4
30.677565 11.169457 4
29.011672 12.731515 4
32.271445 14.280332 4
32.11 16.286332 4
32.054838 14.906978 4
30.445909 17.137059 4
30.682619 17.949579 4
30.060086 18.261917 4
30.232544 18.995605 4
31.728188 20.014046 4
30.673346 19.56924 4
32.514774 22.301288 4
33.651194 26.444966 4
36.817791 23.370518 4
31.472223 28.567098 4
32.594865 27.40685 4
30.416767 -9.3304466 4
32.851596 2.0522851 4
31.618263 -1.7443166 4
33.830454 5.6846474 4
35.644062 5.5563593 4
29.486016 7.5247211 4
31.260227 6.5905576 4
30.881037 10.702874 4
32.077463 10.223201 4
31.767754 11.279368 4
32.572454 11.599222 4
29.321918 12.695988 4
30.471197 14.951377 4
29.272077 16.63653 4
30.810349 16.428522 4
31.799052 17.973863 4
32.296964 18.127926 4
30.591478 17.448164 4
29.996904 21.313643 4
30.020939 21.961327 4
31.601241 24.353567 4
31.377752 24.150307 4
31.625002 30.924987 4
33.302873 27.388059 4
30.416767 38.51446 4
31.846863 -1.290451 4
33.820061 4.4405448 4
29.288818 6.4873459 4
32.625499 5.6499557 4
32.975233 4.5586644 4
28.829643 9.1203981 4
32.728672 12.484811 4
32.788213 9.9829784 4
32.471029 9.6407821 4
31.836063 10.928538 4
29.970001 12.771591 4
32.977695 14.15979 4
33.732837 15.975528 4
32.69558 15.762046 4
31.862367 17.223475 4
32.339091 17.488137 4
31.236219 19.12289 4
31.274544 21.933762 4
33.145276 18.366501 4
31.638187 18.46767 4
33.040571 23.726496 4
35.174515 24.756586 4
31.527382 24.919922 4
34.009761 25.475219 4
31.848578 30.469778 4
31.535314 -2.388352 4
31.67572 -5.0033201 4
31.556909 3.8307228 4
34.186842 3.7527056 4
28.525366 5.4789729 4
31.373678 9.7215217 4
33.483781 8.3499319 4
30.461442 10.199564 4
32.770312 12.991427 4
32.724198 11.374676 4
32.345111 11.194149 4
30.163718 13.007017 4
29.270682 13.954464 4
30.171541 16.16372 4
30.985303 17.322051 4
32.509564 17.750573 4
34.330205 18.330537 4
31.424591 19.627231 4
32.637283 20.860445 4
30.065458 23.922879 4
32.093752 24.376518 4
34.950541 26.000872 4
31.453177 25.322035 4
31.675724 34.187334 4
31.535315 31.572368 4
31.426797 6.7716702 4
32.051663 4.0016173 4
32.056192 0.40888798 4
36.804213 3.9163227 4
31.818619 7.6352055 4
31.2318 4.6430092 4
31.252558 7.7709599 4
33.239223 10.376747 4
32.303727 10.42535 4
32.864555 13.566775 4
31.818098 14.151854 4
33.676679 14.993789 4
33.271799 15.796977 4
31.916023 16.889353 4
32.354315 16.908914 4
32.935105 17.082764 4
32.281968 20.034715 4
31.639255 20.686937 4
31.197212 23.049217 4
31.337412 20.560411 4
30.738028 20.07897 4
33.541034 21.720888 4
31.883722 28.619048 4
32.410804 24.536961 4
35.366018 23.804061 4
30.637644 -2.4974286 4
32.19254 -3.9210709 4
35.728233 3.7492052 4
30.344908 9.0326058 4
32.673479 7.5257683 4
31.39864 6.269493 4
34.308033 7.7785881 4
34.069924 9.6080295 4
32.386967 10.19566 4
35.264097 9.6966981 4
32.830189 11.709952 4
33.869902 11.723755 4
34.171166 11.941401 4
34.382403 14.066295 4
34.856228 16.758315 4
34.005381 16.658756 4
33.519819 19.009372 4
32.45317 19.296289 4
31.872588 21.303382 4
30.387619 21.441234 4
33.170972 22.127772 4
30.678301 23.072023 4
34.056931 22.277209 4
32.19283 33.105165 4
30.63764 31.681445 4
30.871137 1.5629369 4
36.771605 3.2397996 4
30.010369 1.075054 4
34.385517 6.1422114 4
30.315009 4.5949426 4
34.390276 7.2537554 4
36.441871 7.5096443 4
32.880372 9.6721329 4
33.604328 10.263727 4
33.476654 11.266084 4
34.196206 12.527245 4
33.353994 14.055975 4
33.790395 14.562074 4
33.928083 13.673885 4
33.541861 17.124969 4
33.504177 17.915804 4
33.159684 20.29589 4
35.13047 20.063403 4
34.132685 21.308928 4
32.510409 21.768986 4
30.827934 22.321411 4
34.275184 23.67422 4
29.876803 27.986607 4
36.658495 25.544037 4
30.98259 27.633896 4
38.567546 -6.0144139 4
33.195621 2.3784816 4
36.107458 1.6345765 4
33.666053 5.9754566 4
35.816396 5.7299512 4
33.854205 6.4815159 4
33.644324 9.087029 4
36.138599 9.5916675 4
34.374068 10.323358 4
34.140091 10.55217 4
34.296197 11.491318 4
34.450574 13.646684 4
36.259538 13.239746 4
35.768954 16.795407 4
34.870995 16.175325 4
34.451529 17.992255 4
34.281659 19.100766 4
37.028083 19.635498 4
35.470093 20.570482 4
33.48236 22.166018 4
36.60632 24.446412 4
33.092598 22.946011 4
36.105967 27.547111 4
33.210546 26.777638 4
38.567546 35.198427 4
32.575442 1.8960396 4
31.607695 1.5901179 4
36.752944 0.73065694 4
35.946568 6.7178326 4
36.858375 5.8510087 4
36.609465 6.2644172 4
34.2397 8.5894458 4
35.800676 11.530559 4
35.03783 11.409167 4
34.702647 12.487426 4
34.903255 12.787652 4
35.420917 13.903494 4
34.066787 16.320305 4
34.39243 14.768008 4
35.837649 17.208872 4
34.820344 17.790347 4
34.868098 18.175165 4
36.017166 17.619053 4
33.850087 21.011772 4
34.906874 21.733198 4
34.51998 21.496197 4
37.552773 23.772672 4
37.077418 28.498744 4
31.607538 27.594069 4
31.741955 26.284631 4
32.302704 0.81489963 4
34.004312 -2.966981 4
35.822395 2.3644191 4
35.763586 4.4411559 4
36.513696 7.0631333 4
34.554357 9.5319585 4
36.585673 8.273904 4
34.811584 9.8899804 4
36.368226 10.626666 4
36.478848 11.090435 4
36.805306 11.665236 4
36.089415 12.340308 4
34.210692 13.825696 4
35.196269 16.190836 4
36.425138 16.813513 4
37.834714 17.047204 4
35.471137 18.310287 4
34.546352 19.011215 4
36.699852 20.661727 4
37.173594 23.089966 4
35.98311 22.024167 4
35.857973 24.429237 4
35.799474 26.801853 4
34.004313 32.150991 4
32.27118 28.283782 4
30.353718 -0.031312091 4
35.537644 2.4811626 4
37.27599 5.5148022 4
34.099232 2.3686946 4
39.311376 5.500867 4
36.195424 6.7874879 4
36.117663 8.1510399 4
35.925943 10.611927 4
37.026346 9.7626974 4
37.077214 11.257479 4
36.37822 12.715206 4
36.667097 14.102198 4
37.963203 14.516483 4
36.590337 16.386033 4
36.969211 17.151718 4
36.169388 17.995816 4
36.521122 18.778707 4
36.040076 19.268885 4
36.180541 20.325833 4
36.620246 22.320836 4
37.244544 25.013026 4
34.259585 27.159743 4
35.14091 24.454277 4
35.49126 26.6903 4
30.33047 29.330855 4
32.251143 -0.60340418 4
34.975352 -0.063761349 4
38.171974 8.5197998 4
34.621807 3.6927355 4
34.549982 7.029194 4
36.995528 6.6977472 4
36.686422 7.5532434 4
36.360639 8.9788975 4
37.279632 10.091266 4
37.495542 11.209789 4
37.286915 12.237921 4
37.391594 12.601074 4
37.658052 13.963648 4
37.254291 16.530151 4
37.482199 17.002342 4
37.279869 17.959222 4
37.279968 19.090859 4
36.805024 20.06593 4
36.805704 21.490026 4
39.444132 22.845191 4
36.11688 21.321158 4
34.60046 25.52206 4
38.239206 20.802919 4
34.981744 29.269748 4
32.251187 29.787478 4
32.892298 1.1444849 4
34.056773 0.42105243 4
38.996409 2.8711921 4
39.144801 5.8726972 4
36.106194 5.7262502 4
38.021195 6.9245366 4
38.984211 8.7916885 4
37.484183 8.9810274 4
38.40298 10.116396 4
38.402684 11.224619 4
38.439518 12.49305 4
37.544474 13.389222 4
36.578995 14.846889 4
37.490791 15.573639 4
38.402682 16.838669 4
38.402684 17.959392 4
38.402893 19.069894 4
37.484143 20.204361 4
38.985704 20.389841 4
37.837791 22.641394 4
37.615482 22.869723 4
37.42106 23.359928 4
38.975883 26.269837 4
34.096094 28.800297 4
32.892315 28.039503 4
33.619433 -0.19797155 4
37.23373 2.0891255 4
35.85812 1.8270779 4
36.638074 4.4095874 4
38.405886 4.6809847 4
38.048155 6.4374978 4
37.681369 7.8719135 4
38.601626 8.9852146 4
38.840256 10.09556 4
38.841444 11.224618 4
38.796848 12.278327 4
38.690126 13.102778 4
38.491191 13.7784 4
38.69491 16.090627 4
38.841314 16.835921 4
38.841434 17.959394 4
38.840565 19.087387 4
38.602271 20.197182 4
37.679919 21.308207 4
38.711442 22.130905 4
37.91049 23.893207 4
36.00907 24.962878 4
35.887877 27.341164 4
37.193874 27.045709 4
33.620098 29.373491 4
36.871441 -0.084950029 4
35.469233 1.2703383 4
36.142438 2.46695 4
37.113532 4.256654 4
39.083698 3.8276158 4
39.711206 7.9003082 4
38.812553 7.8535937 4
39.729291 8.9862635 4
39.729238 10.102088 4
39.729238 11.224623 4
39.72928 12.352385 4
39.87386 13.737201 4
40.62375 15.39305 4
39.869431 15.441055 4
39.729238 16.837086 4
39.729238 17.959391 4
39.729238 19.081926 4
39.729233 20.203033 4
38.813016 21.331182 4
39.716778 21.254043 4
39.029561 23.860259 4
37.05953 24.341765 4
36.151124 26.726701 4
35.481035 27.946436 4
36.907694 29.188999 4
37.520091 -0.043122111 4
37.47624 2.8955172 4
38.551649 5.9279583 4
38.99324 3.2953301 4
39.894157 7.1496143 4
39.017174 6.7327329 4
40.076109 7.8691772 4
40.168905 8.9769861 4
40.169221 10.102191 4
40.169221 11.224619 4
40.169167 12.34457 4
39.933876 13.455031 4
39.048967 14.456624 4
39.933494 15.726614 4
40.169218 16.836843 4
40.169221 17.959394 4
40.16922 19.081821 4
40.168973 20.204555 4
40.025772 21.334048 4
39.010987 22.445412 4
39.361806 24.565643 4
38.864692 25.567602 4
39.221731 24.082716 4
37.117527 26.268715 4
37.495456 29.307184 4
37.381279 1.1284305 4
38.045196 2.7898467 4
42.123463 2.8341634 4
42.129004 5.809049 4
39.975418 5.151893 4
40.959951 6.7760985 4
41.05582 7.8652936 4
41.055686 8.9793546 4
41.055686 10.102158 4
41.055686 11.22462 4
41.055686 12.347093 4
41.056084 13.48582 4
40.139714 14.684068 4
41.056062 15.698066 4
41.055686 16.836944 4
41.055686 17.959393 4
41.055686 19.081855 4
41.055686 20.204644 4
41.055847 21.317941 4
39.961946 22.298244 4
40.589352 22.329144 4
42.059062 24.02114 4
42.006384 26.368476 4
38.072478 26.434555 4
37.380462 28.055791 4
38.504329 1.1285827 4
38.431373 1.8027444 4
38.638103 2.4746024 4
39.419062 4.3892834 4
40.319365 6.3021063 4
41.259324 6.7576257 4
41.49671 7.8513437 4
41.497012 8.9798578 4
41.497015 10.102158 4
41.497015 11.22462 4
41.497015 12.347077 4
41.496521 13.461876 4
41.291452 14.358057 4
41.496353 15.722207 4
41.497015 16.836924 4
41.497015 17.959393 4
41.497015 19.081855 4
41.497012 20.204162 4
41.49669 21.33318 4
41.259941 22.426246 4
41.758127 23.000471 4
39.423926 24.807907 4
38.777473 26.782962 4
38.367049 27.27469 4
38.504325 28.055449 4
39.562983 1.110401 4
40.269983 0.20262781 4
[...]
POINT_DATA 1250
SCALARS m double
LOOKUP_TABLE default
1
1
1
1
1
1
1
1
1
1
1
1
1
1
1
1
1
1
1
1
1
1
1
1
1
1
1
1
1
1
1
1
1
1
1
1
1
1
1
1
1
1
1
1
1
1
1
1
1
1
1
1
1
1
1
1
1
1
1
1
1
1
1
1
1
1
1
1
1
1
1
1
1
1
1
1
1
1
1
1
1
1
1
1
1
1
1
1
1
1
1
1
1
1
1
1
1
1
1
1
1
1
1
1
1
1
1
1
1
1
1
1
1
1
1
1
1
1
1
1
1
1
1
1
1
1
1
1
1
1
1
1
1
1
1
1
1
1
1
1
1
1
1
1
1
1
1
1
1
1
1
1
1
1
1
1
1
1
1
1
1
1
1
1
1
1
1
1
1
1
1
1
1
1
1
1
1
1
1
1
1
1
1
1
1
1
1
1
1
1
1
1
1
1
1
1
1
1
1
1
1
1
1
1
1
1
1
1
1
1
1
1
1
1
1
1
1
1
1
1
1
1
1
1
1
1
1
1
1
1
1
1
1
1
1
1
1
1
1
1
1
1
1
1
1
1
1
1
1
1
1
1
1
1
1
1
1
1
1
1
1
1
1
1
1
1
1
1
1
1
1
1
1
1
1
1
1
1
1
1
1
1
1
1
1
1
1
1
1
1
1
1
1
1
1
1
1
1
1
1
1
1
1
1
1
1
1
1
1
1
1
1
1
1
1
1
1
1
1
1
1
1
1
1
1
1
1
1
1
1
1
1
1
1
1
1
1
1
1
1
1
1
1
1
1
1
1
1
1
1
1
1
1
1
1
1
1
1
1
1
1
1
1
1
1
1
1
1
1
1
1
1
1
1
1
1
1
1
1
1
1
1
1
1
1
1
1
1
1
1
1
1
1
1
1
1
1
1
1
1
1
1
1
1
1
1
1
1
1
1
1
1
1
1
1
1
1
1
1
1
1
1
1
1
1
1
1
1
1
1
1
1
1
1
1
1
1
1
1
1
1
1
1
1
1
1
1
1
1
1
1
1
1
1
1
1
1
1
1
1
1
1
1
1
1
1
1
1
1
1
1
1
1
1
1
1
1
1
1
1
1
1
1
1
1
1
1
1
1
1
1
1
1
1
1
1
1
1
1
1
1
1
1
1
1
1
1
1
1
1
1
1
1
1
1
1
1
1
1
1
1
1
1
1
1
1
1
1
1
1
1
1
1
1
1
1
1
1
1
1
1
1
1
1
1
1
1
1
1
1
1
1
1
1
1
1
1
1
1
1
1
1
1
1
1
1
1
1
1
1
1
1
1
1
1
1
1
1
1
1
1
1
1
1
1
1
1
1
1
1
1
1
1
1
1
1
1
1
1
1
1
1
1
1
1
1
1
1
1
1
1
1
1
1
1
1
1
1
1
1
1
1
1
1
1
1
1
1
1
1
1
1
1
1
1
1
1
1
1
1
1
1
1
1
1
1
1
1
1
1
1
1
1
1
1
1
1
1
1
1
1
1
1
1
1
1
1
1
1
1
1
1
1
1
1
1
1
1
1
1
1
1
1
1
1
1
1
1
1
1
1
1
1
1
1
1
1
1
1
1
1
1
1
1
1
1
1
1
1
1
1
1
1
1
1
1
1
1
1
1
1
1
1
1
1
1
1
1
1
1
1
1
1
1
1
1
1
1
1
1
1
1
1
1
1
1
1
1
1
1
1
1
1
1
1
1
1
1
1
1
1
1
1
1
1
1
1
1
1
1
1
1
1
1
1
1
1
1
1
1
1
1
1
1
1
1
1
1
1
1
1
1
1
1
1
1
1
1
1
1
1
1
1
1
1
1
1
1
1
1
1
1
1
1
1
1
1
1
1
1
1
1
1
1
1
1
1
1
1
1
1
1
1
1
1
1
1
1
1
1
1
1
1
1
1
1
1
1
1
1
1
1
1
1
1
1
1
1
1
1
1
1
1
1
1
1
1
1
1
1
1
1
1
1
1
1
1
1
1
1
1
1
1
1
1
1
1
1
1
1
1
1
1
1
1
1
1
1
1
1
1
1
1
1
1
1
1
1
1
1
1
1
1
1
1
1
1
1
1
1
1
1
1
1
1
1
1
1
1
1
1
1
1
1
1
1
1
1
1
1
1
1
1
1
1
1
1
1
1
1
1
1
1
1
1
1
1
1
1
1
1
1
1
1
1
1
1
1
1
1
1
1
1
1
1
1
1
1
1
1
1
1
1
1
1
1
1
1
1
1
1
1
1
1
1
1
1
1
1
1
1
1
1
1
1
1
1
1
1
1
1
1
1
1
1
1
1
1
1
1
1
1
1
1
1
1
1
1
1
1
1
1
1
1
1
1
1
1
1
1
1
1
1
1
1
1
1
1
1
1
1
1
1
1
1
1
1
1
1
1
1
1
1
1
1
1
1
1
1
1
1
1
1
1
1
1
1
1
1
1
1
1
1
1
1
1
1
1
1
1
1
1
1
1
1
1
1
1
1
1
1
1
1
1
1
1
1
1
1
1
1
1
1
1
1
1
1
1
1
1
1
1
1
1
1
1
1
1
1
1
1
1
1
1
1
1
1
1
1
1
1
1
1
1
1
1
1
1
1
1
1
1
1
1
1
1
1
1
1
1
1
1
1
1
1
1
1
1
1
1
1
1
1
1
1
1
1
1
1
1
1
1
1
1
1
1
1
1
1
1
1
1
1
1
1
1
1
1
1
1
1
1
1
1
1
1
1
1
1
1
1
1
1
1
1
1
1
1
1
1
1
1
1
1
1
1
1
1
1
1
1
1
1
1
1
1
1
1
1
1
1
1
1
1
1
1
1
1
1
1
VECTORS v double
3.4735117 7.5760401 0
4.6865279 -10.073003 0
4.3565629 3.557473 0
-7.6361773 -7.0269934 0
-3.4247671 -4.5475252 0
-2.7964154 1.8869155 0
-5.7760296 -5.007117 0
9.8075749 0.16520311 0
-0.72168374 -0.98989849 0
9.9771851 -0.92481048 0
-2.4260353 -2.0007227 0
10.420209 -4.61233 0
-2.0815798 6.6491629 0
6.4814873 4.6381569 0
-2.4635474 -13.369909 0
10.070532 -0.17676486 0
-7.9238322 -9.766434 0
1.7944139 -7.127768 0
2.5019294 1.5305949 0
3.1771307 -4.7539583 0
-6.6498761 -4.350363 0
7.7284563 8.4691015 0
14.240236 -7.3886868 0
6.9024723 7.9596696 0
-11.608996 6.9749721 0
2.6326111 -13.726701 0
-12.902854 -4.2876735 0
5.46249 -9.7492265 0
10.267756 -0.073964284 0
3.788857 -8.069841 0
-10.768343 1.1051641 0
1.2189778 -4.4975317 0
-9.3057613 8.2671669 0
10.234357 -0.37399972 0
7.8709393 3.1520064 0
6.8310313 -2.6656663 0
-5.9839273 -1.968352 0
5.6718395 1.2769573 0
6.2273121 0.15051049 0
-7.3731996 -6.5674801 0
9.9631472 0.15139576 0
1.3108844 -5.5068724 0
6.9164762 7.0872903 0
11.807966 -3.9260803 0
-7.9941521 -2.4326585 0
-5.3693035 5.634814 0
12.68821 6.0741339 0
5.4768926 9.7435172 0
-2.4313618 8.4243539 0
2.6326112 13.726701 0
0.15421596 -9.2543785 0
8.2770132 0.88099239 0
-9.9601993 1.3270365 0
2.6472032 0.55915811 0
12.835828 1.3953619 0
-11.558927 2.8896868 0
3.2810586 4.9038422 0
-2.3367751 10.940403 0
4.2927709 -5.5633834 0
2.7953605 -5.1663064 0
-9.8454836 2.0875816 0
-3.1139889 -4.1842298 0
12.714228 -5.8111585 0
-1.8436029 10.698852 0
7.737665 5.9522045 0
-3.4714776 -12.889784 0
-10.358551 0.37788893 0
-3.8038934 -4.0498299 0
14.273881 5.093073 0
6.626053 -10.61282 0
10.082846 0.45042744 0
8.019714 5.2000724 0
-0.21987836 5.4242233 0
6.4895271 0.67978768 0
0.16034112 9.2291523 0
-0.50555573 -3.6748266 0
6.8351998 -10.619095 0
-1.3508937 9.270936 0
5.9933286 -1.0629147 0
-2.5851556 -6.0357987 0
1.134696 9.9227842 0
2.4155177 -5.5359529 0
-8.5666102 5.3544465 0
0.14885461 16.089666 0
-1.6311884 -8.2085733 0
-7.9433867 4.2712774 0
-9.8866553 -1.8703761 0
-9.8340653 -1.9157218 0
-9.8497358 1.7022752 0
-15.031806 0.68440239 0
3.527943 5.4097239 0
3.5090509 -4.2474272 0
0.40289018 6.0472922 0
-7.726916 15.443851 0
3.3315119 6.4594288 0
10.885532 2.5164892 0
12.460796 4.30327 0
-1.9804698 -9.4632471 0
6.8352062 10.619101 0
-0.50551104 3.6750181 0
-13.23282 -4.8025773 0
3.9034323 -2.5913881 0
9.9426586 -5.779317 0
6.6941213 4.755301 0
-6.1990171 9.7319136 0
1.176313 -12.098246 0
-9.1386361 -5.3461715 0
4.2578045 12.929597 0
-6.0683347 -9.6362107 0
-6.4053559 -3.1080668 0
-6.81551 12.385242 0
11.436603 10.12578 0
8.4528226 1.6043402 0
-10.014569 3.7497547 0
-5.8382464 6.0555805 0
-2.9510098 -0.42745884 0
-8.4858972 -2.7300757 0
-2.157499 2.4168515 0
-6.3882982 7.1444894 0
-7.7206714 -9.9010718 0
-6.2987775 -10.287088 0
-8.7918876 -7.0908832 0
8.226352 4.3835993 0
7.9046323 -4.8492907 0
5.7102908 -6.601433 0
-1.1134223 -6.3283054 0
-1.9961566 -10.926475 0
-7.9275055 -10.261997 0
-5.485429 18.87472 0
-11.790401 5.0711831 0
-3.5200374 -5.4278032 0
6.0786516 -12.202721 0
7.8990123 -6.4602551 0
-8.8555699 -1.9560804 0
-3.9290895 -9.9688383 0
2.9223348 13.228639 0
2.1675706 -9.1436 0
3.0386008 -8.9801914 0
3.4361355 -17.365329 0
5.3334207 9.0991171 0
-0.12613781 -0.049729475 0
-9.8230267 -1.606433 0
-2.9081455 -6.4651715 0
-7.8454057 2.8738822 0
-10.0345 -5.0548567 0
7.0160229 3.589205 0
4.9083862 9.804255 0
-10.315158 -7.7018386 0
-1.9955682 10.926643 0
-1.11344 6.3283332 0
-5.82329 -5.1344567 0
4.4641412 -6.2060719 0
-6.4000344 -6.8897085 0
6.1523537 6.2754777 0
-7.2329608 -8.8199433 0
0.81347537 2.0881071 0
8.3473464 1.5044823 0
-5.9459671 7.4633911 0
-7.85416 8.3532592 0
-10.744269 0.96670471 0
-17.616374 5.5473578 0
-2.2363258 -3.6443099 0
11.376095 9.9620838 0
-1.0595153 -12.453429 0
-9.4444444 3.3907369 0
-9.9681285 -0.95607256 0
2.2208626 1.1508316 0
15.649184 0.23388302 0
-6.0165421 -2.9120993 0
-9.5558979 -6.4048524 0
-13.125692 4.8666503 0
3.9713027 -3.9629029 0
-6.8881491 6.3272598 0
1.8697916 -3.414711 0
-5.0748032 5.2896552 0
4.8370531 -9.9977527 0
-2.5619508 0.25985775 0
2.0397578 -3.9547747 0
-2.5587271 6.3382454 0
0.95447463 3.0263455 0
-8.4488687 2.4102743 0
-5.4771927 6.4734716 0
2.2650327 8.8477098 0
7.8676359 5.6496199 0
0.88039333 -19.521017 0
2.5500574 2.6948946 0
-1.9380512 9.3154024 0
-3.9325134 -8.1401739 0
-8.4559331 -11.188777 0
-13.321834 -11.565572 0
9.9855861 0.98731782 0
9.9180557 1.2360238 0
13.942098 -0.96104077 0
-6.7114288 2.2560903 0
3.613724 -3.5316076 0
-3.6506866 13.712866 0
-0.78036831 7.93379 0
2.3342892 4.337645 0
-5.2061503 -1.9843407 0
4.8370532 9.9977527 0
-1.2151868 -6.4782945 0
-9.8566393 -1.5942508 0
-4.1661991 -11.996112 0
-5.9968225 9.2344206 0
2.6697857 -2.6486575 0
-7.661462 -8.1641986 0
-1.8052326 10.491738 0
-8.4396872 7.096686 0
-9.1808481 17.623738 0
2.1204132 8.0394271 0
-9.3702339 3.8977596 0
-4.1407123 5.4306468 0
-5.4921172 7.2768507 0
-6.743212 -6.3782196 0
-0.99258415 6.6127738 0
-10.737915 -13.330436 0
-7.8550759 -0.081922361 0
5.1787626 10.319476 0
-13.102175 -6.4705058 0
1.4336286 0.13172657 0
2.2272446 -6.8220018 0
3.8338645 -4.3944101 0
-1.380337 12.259317 0
-9.8656975 1.6049487 0
-4.3227692 2.9126549 0
1.4535518 -1.2470071 0
-3.933267 -8.2576478 0
0.29297481 -0.6808222 0
-2.6266025 0.44329572 0
5.0258845 -6.7860682 0
-14.363272 0.32902151 0
-2.4920807 4.9537742 0
-3.2507032 11.661246 0
10.729955 8.7732594 0
3.6587747 -3.2399304 0
5.0252856 -9.7388303 0
1.1030238 -9.9186564 0
-10.03798 -3.0720317 0
5.9085187 -0.60622266 0
8.5157884 -0.84753869 0
18.238075 -9.668105 0
-5.3652639 -8.4108525 0
-14.269897 -2.4071208 0
-1.2479262 -6.8921163 0
3.0419358 -4.0884079 0
-5.8520696 4.5660695 0
-4.6638849 -5.16141 0
-0.72046064 0.30907251 0
-3.9332647 8.2576421 0
1.3093077 0.73860634 0
11.630607 -4.1571447 0
2.6959468 5.5031611 0
2.2986766 2.3032098 0
-7.3167586 -7.2863706 0
9.1710406 -0.50506041 0
-3.2566526 -6.7197671 0
-0.011408772 -8.8113339 0
-6.8665596 8.3239323 0
6.0372543 -6.2822712 0
-9.9102653 1.7010571 0
-5.8698158 6.665427 0
1.4234704 9.4767168 0
5.7718304 -9.4420982 0
-3.4423333 6.2698329 0
-2.9007321 11.855287 0
-9.8172209 0.53860229 0
2.5875803 -10.406553 0
-8.4111518 1.9098466 0
-9.2947598 2.2684731 0
2.9985058 8.1504347 0
-0.13392909 7.1773056 0
-6.7204231 8.5240821 0
-6.6325515 0.89780563 0
2.804247 -5.4788604 0
11.513668 5.1747165 0
-7.9827133 -7.1916644 0
-9.7690949 -5.474937 0
9.925956 6.3401403 0
-10.858336 0.14459283 0
-9.5261561 6.8982807 0
-7.3832081 5.1317642 0
-7.0163184 3.2599232 0
-10.013361 -0.0016536661 0
-10.039449 -0.19574894 0
9.6807768 -1.3771761 0
-9.8789486 -1.5703464 0
0.25596129 -8.6076595 0
-9.7757997 3.1320167 0
-1.9730257 -9.7914707 0
1.3164296 9.4449384 0
-9.9994519 -0.0065177728 0
-9.9994782 0.13928095 0
6.9185318 -5.308235 0
-6.7573419 -4.954892 0
13.095042 -1.4571256 0
-13.731923 -9.9790297 0
-10.971657 0.17974426 0
10.122601 -4.8965415 0
-9.7395554 5.5711836 0
-7.9824405 7.1922569 0
-9.9997785 0.099064326 0
-6.2383728 -8.624753 0
3.671018 0.96988575 0
-6.8283219 8.4311618 0
10.786298 -1.2001753 0
10.173247 0.21391461 0
6.6383679 5.672793 0
-9.9927367 0.0023719103 0
-9.9929746 0.7102643 0
-10.013339 -2.4382349e-05 0
-7.4258464 7.414167 0
-8.744099 -3.6446229 0
-9.9123745 1.2757837 0
-9.9361054 -1.2638992 0
-10.014528 0.090742454 0
-10.013292 -0.00017790561 0
-9.9989532 -0.59609888 0
-9.9970461 0.0046000598 0
6.6054699 -5.8075817 0
4.5109193 6.0218297 0
5.1879759 -5.266767 0
-15.172121 -1.7989903 0
3.6055459 -1.2518017 0
-5.9592794 8.8619969 0
-10.000056 -0.10276731 0
-11.478607 -4.94218 0
-9.6320123 -0.37192375 0
-4.1311292 -9.2121231 0
2.3816561 0.14096561 0
3.4691316 -10.618336 0
-11.096619 6.8095311 0
-10.075135 0.20867358 0
-10.259033 0.60221607 0
9.9879036 -0.57711838 0
10.014317 -0.00011132614 0
7.3040269 -6.0718427 0
-8.6192574 -5.581164 0
9.5328951 -3.3752528 0
-8.5378711 5.7264515 0
10.011625 -0.079425944 0
10.014134 3.0916996e-05 0
9.9955232 0.48404488 0
-10.214364 -0.52703717 0
-10.100758 -0.33440197 0
-2.9502091 -9.1320139 0
0.85818032 4.3755221 0
-5.2990606 4.9705608 0
-3.8151075 8.8744253 0
-10.14761 -0.26463449 0
-11.475319 4.9093122 0
-4.5410104 -7.0599946 0
-8.8862919 -3.3882645 0
-9.8154244 -2.5699824 0
-9.1056809 -5.1432727 0
-3.8047744 0.049714863 0
-10.731549 6.6512951 0
-9.9603567 -0.057368019 0
-10.009758 0.31866639 0
-10.013284 -0.0034934446 0
-10.013285 0.00012333146 0
-10.010403 0.26405881 0
8.1931239 5.5097194 0
8.15904 5.7965467 0
8.2453405 -5.3450274 0
-10.013283 0.0080840605 0
-10.013287 -8.1978815e-05 0
-10.013284 0.0035356668 0
-10.013685 -0.055979886 0
-9.9500763 0.07266478 0
-9.5934734 -8.8216678 0
0.79700157 5.41548 0
-9.0092455 3.2435252 0
-9.7179908 2.6400677 0
-8.8504521 3.5603766 0
-4.2561861 6.5371307 0
-1.6451455 -7.0151851 0
0.17417733 5.1861256 0
-3.5889122 1.6668595 0
-6.7130477 -10.246918 0
-10.454647 7.3550678 0
-9.9729112 -0.021590159 0
4.0501915 1.3538163 0
10.007887 -0.2516601 0
10.015137 0.002837161 0
10.015131 -0.0001051024 0
10.012063 -0.21575463 0
-9.6373438 -1.0923225 0
-9.6245786 -1.3186075 0
-9.7542689 0.76688132 0
10.015052 -0.0068025828 0
10.015128 6.5724403e-05 0
10.015136 -0.0028760803 0
10.011992 0.037829011 0
2.6079269 0.72800206 0
-10.128178 0.0046079124 0
-6.0700879 2.3765645 0
-7.2703851 -0.20538923 0
-2.5292782 -1.1355735 0
-2.7508848 -5.4733076 0
-1.8479987 7.5478594 0
-10.009435 0.0075919352 0
0.3690273 8.4411135 0
0.76501855 -8.1134214 0
6.1671756 3.3768277 0
6.6884607 -8.7208495 0
3.9587358 0.75984613 0
-10.004993 0.44343909 0
-10.014001 -0.016954873 0
-10.014012 -5.641964e-07 0
-10.014012 5.345397e-07 0
-10.014006 0.00053050501 0
-9.9872492 0.80720022 0
-9.9792581 0.84187497 0
-9.9920941 -0.81707187 0
-10.014013 0.00068933354 0
-10.014012 -6.3132423e-07 0
-10.014012 4.7529813e-07 0
-10.014001 0.016238831 0
-10.003193 -0.4851736 0
-14.658056 -4.1587055 0
-2.8426231 -7.7503784 0
5.9054324 3.1579508 0
-2.0726051 9.5247498 0
0.81999377 -7.8256977 0
-10.052712 0.015490974 0
-10.000061 0.013481266 0
-11.451526 -8.7101128 0
-8.137725 0.011740505 0
-10.028076 -0.3946196 0
-10.253423 5.5518598 0
-9.9860493 0.34076733 0
10.005313 -0.40724521 0
10.015995 0.013821624 0
10.01602 7.7996441e-07 0
10.01602 -6.4327764e-07 0
10.016023 -0.0004613076 0
9.9880719 -0.65730265 0
-9.4747312 -3.5377611 0
9.9831571 0.66286129 0
10.016015 -0.00057174808 0
10.01602 7.9053661e-07 0
10.01602 -7.4233751e-07 0
10.015997 -0.013242989 0
10.003722 0.44425372 0
-9.9950152 -0.34328678 0
0.5896062 -8.9362242 0
-7.8752316 7.7639151 0
-6.0779661 1.4312467 0
-12.996024 7.3248296 0
-10.000114 -0.011704216 0
-10.623335 -0.20698006 0
-6.4494275 -10.207869 0
-10.014579 0.0011892504 0
-9.8484316 1.9470865 0
-7.6984122 -7.1202917 0
-9.942401 -1.3469658 0
-10.014698 0.091666522 0
-10.015049 -6.9253653e-07 0
-10.015048 8.0005776e-08 0
-10.015049 3.0027402e-09 0
-10.015049 1.5261586e-05 0
-10.015032 6.2101148e-06 0
-0.75405195 11.302017 0
-10.015058 -0.00045785293 0
-10.015049 1.8419008e-05 0
-10.015049 -3.8664835e-09 0
-10.015048 -9.266629e-08 0
-10.015049 1.1877416e-06 0
-10.014646 -0.098460252 0
-9.9399529 1.3783837 0
-4.3916407 5.9517463 0
-9.8510946 -1.9103474 0
-10.004337 0.0015844974 0
-6.7161367 10.487184 0
-10.191875 0.05083253 0
-10.007665 0.0079093915 0
-10.013636 0.052139847 0
-9.9883382 -0.040837641 0
-4.2474867 -2.5754716 0
7.5969071 5.5364662 0
9.9389887 1.0552179 0
10.016559 -0.074639735 0
10.016925 -7.5731803e-07 0
10.016925 -5.9154577e-08 0
10.016925 8.7516353e-11 0
10.016924 -1.2297691e-05 0
10.016911 -0.00015060623 0
0.20534692 -8.427295 0
10.016884 -0.00011281101 0
10.016924 -1.64863e-05 0
10.016925 1.6451077e-10 0
10.016925 5.9356323e-08 0
10.016925 4.4913419e-07 0
10.016517 0.080250743 0
9.9354653 -1.0865974 0
-9.7197848 2.4873661 0
-1.709811 0.25259155 0
-9.9856272 0.048318432 0
-10.012593 -0.046202129 0
-10.007707 -0.0081045029 0
-10.000035 0.010466251 0
-10.000028 0.0081523782 0
-10.231283 6.5283134 0
6.9237027 6.2695043 0
-10.050441 0.26052862 0
-10.017774 0.066967295 0
-10.015958 -0.00019976803 0
-10.015955 -1.0520929e-08 0
-10.015955 3.9911719e-10 0
-10.015955 2.1586189e-12 0
-10.015955 -9.1234371e-08 0
-10.015953 -2.0826493e-05 0
-10.015846 8.3197684e-05 0
-10.015957 -1.7336878e-05 0
-10.015955 -7.6970282e-09 0
-10.015955 4.1699281e-12 0
-10.015955 -4.4428497e-10 0
-10.015955 2.8483328e-08 0
-10.015955 -5.0849331e-06 0
-10.015718 -0.075815138 0
-0.48215968 -10.763216 0
7.0147575 -6.2116941 0
-10.252766 -5.8998063 0
-10.000274 -0.0093104883 0
-10.000035 -0.010465354 0
-10.000003 0.010449975 0
-10.000165 7.977018e-05 0
-10.002484 0.00034824078 0
-10.064295 0.18015457 0
-9.9449756 -0.56996573 0
10.015247 -0.059429849 0
10.017446 0.00014910846 0
10.017449 1.4648666e-08 0
10.017449 2.6602954e-11 0
10.017449 8.3583853e-13 0
10.017449 -1.111606e-09 0
10.017451 1.2891848e-05 0
10.017469 -6.2709244e-05 0
10.017447 1.4668536e-05 0
10.017449 1.5484395e-10 0
10.017449 1.7724687e-12 0
10.017449 -1.1391492e-13 0
10.017449 -2.5188675e-08 0
10.017449 6.906117e-06 0
10.017161 0.062621605 0
0.30874872 9.1946758 0
-10.067363 -0.19459716 0
-10.002205 -0.00043694266 0
-10.000122 -4.4445328e-05 0
-10.000002 -0.010449125 0
-9.9999991 0.010445231 0
-10.000002 -4.8820325e-05 0
-10.000019 2.3430602e-05 0
-10.001689 0.0042429353 0
-9.8739969 1.87549 0
-10.016955 0.00095671709 0
-10.016947 1.8647684e-06 0
-10.016947 5.9485585e-10 0
-10.016947 -7.464179e-13 0
-10.016947 -6.2573975e-14 0
-10.016947 2.541024e-12 0
-10.016947 -1.9911893e-08 0
-10.016947 -5.0288852e-09 0
-10.016947 1.9829612e-08 0
-10.016947 6.2870393e-13 0
-10.016947 -3.5422651e-14 0
-10.016947 -4.4483238e-14 0
-10.016947 -4.7427327e-10 0
-10.016947 -1.5468566e-06 0
-10.016959 -0.00072774227 0
-9.8627855 -1.9478647 0
-10.001934 -0.0050223417 0
-10.000019 -2.6149008e-05 0
-10.000002 4.91016e-05 0
-9.9999991 -0.010445231 0
-9.9999592 0.010448482 0
-9.99995 -4.9977893e-05 0
-9.9999518 4.1207198e-06 0
-10.00006 0.00022806542 0
9.8593776 -1.5282979 0
10.014848 -0.00082368318 0
10.01486 -1.8143385e-06 0
10.014861 -2.8444071e-10 0
10.014861 -7.6306925e-14 0
10.014861 -8.7074938e-14 0
10.014861 -5.3961484e-13 0
10.014861 5.8117276e-11 0
10.014861 -8.1126995e-11 0
10.014861 3.2785428e-11 0
10.014861 1.3867446e-13 0
10.014861 1.7420132e-13 0
10.014861 5.590349e-14 0
10.014861 1.6318852e-10 0
10.014861 1.3506995e-06 0
10.014845 0.00064727938 0
9.847158 1.5872935 0
-10.000072 -0.00023707056 0
-9.999952 -4.4063451e-06 0
-9.99995 4.9977904e-05 0
-9.9999592 -0.010448482 0
-10.00987 0.0098704343 0
-10.010448 -4.0759987e-05 0
-10.010445 -5.1558781e-07 0
-10.010457 1.0453502e-05 0
-10.010653 7.7345414e-06 0
-10.010665 3.3771987e-07 0
-10.010665 9.0963905e-09 0
-10.010665 5.2820431e-12 0
-10.010665 2.2022229e-14 0
-10.010665 -5.8120199e-15 0
-10.010665 7.3555272e-17 0
-10.010665 5.6792883e-14 0
-10.010665 -1.1716019e-13 0
-10.010665 1.0147303e-14 0
-10.010665 -7.7958886e-16 0
-10.010665 6.0235744e-15 0
-10.010665 -1.3516984e-14 0
-10.010665 -3.8524483e-12 0
-10.010665 -9.4547022e-09 0
-10.010666 -3.2164313e-07 0
-10.010653 -7.615797e-06 0
-10.010457 -1.0502976e-05 0
-10.010445 5.1533175e-07 0
-10.010448 4.0759988e-05 0
-10.00987 -0.0098704343 0
-3.5389806 7.4234345 0
-5.788717 -5.3443719 0
9.9545974 2.2421653 0
4.8480105 -1.969376 0
12.768092 1.3791907 0
-1.7271447 -2.4977993 0
5.3949345 -7.6867428 0
1.4221998 2.3805377 0
0.86569418 9.1528627 0
-9.8964259 1.1828518 0
8.7934384 -4.7978674 0
-17.31207 -1.7904156 0
3.8207503 8.1567964 0
-7.6549618 -2.6434844 0
-7.400836 -7.0359105 0
-10.002129 -0.057455376 0
3.5530791 0.32867653 0
-2.7938713 -9.6431153 0
2.3057549 -13.862494 0
-2.4304316 -3.3612916 0
4.4755964 -3.0476044 0
-5.6491417 8.744449 0
-6.6796864 -12.899456 0
-5.4132322 8.4314002 0
-3.4959058 10.040455 0
-2.6326111 -13.726701 0
14.540526 -1.8641526 0
-5.4622072 -9.7607583 0
-5.7326931 -2.3055347 0
-3.9015309 3.4381543 0
6.5458374 -3.6932434 0
2.8055252 -0.81709007 0
-10.983449 2.975875 0
9.6756866 2.6683756 0
-10.013373 -0.23637849 0
-1.5910641 2.9403042 0
9.1679808 13.438738 0
9.7135143 3.7088625 0
10.687378 -4.0611687 0
-10.289869 -0.58288409 0
-10.136129 0.018266988 0
-8.2885569 -15.503041 0
2.0186427 -14.53319 0
-2.0909502 -6.6208936 0
4.4064914 -5.3448754 0
-8.4147052 0.52773267 0
-8.4339712 -11.98233 0
-5.4770342 9.7408082 0
7.4803362 6.9650755 0
-2.6326112 13.726701 0
-0.15492649 -9.2536343 0
-13.57575 -4.4623969 0
-0.023761392 7.2339639 0
9.0484286 2.5639592 0
-10.532681 -8.1747987 0
-2.2022646 10.470411 0
-4.7730636 5.069721 0
6.2574806 -12.894095 0
6.1726219 -0.69320488 0
-5.7803586 -3.1444767 0
9.2675874 -3.9258736 0
4.2401808 -9.1219078 0
13.3133 3.9949493 0
-8.3660381 1.73681 0
-0.78752059 12.081257 0
-1.4490531 -9.7073552 0
-8.9121323 -5.9574941 0
-3.124151 3.0600735 0
-7.2535197 3.2196608 0
7.9107694 7.9467301 0
-8.8522956 1.2882447 0
-5.5878947 4.3957654 0
0.34327967 5.496063 0
-11.099035 -5.1582112 0
-0.16012066 9.2301039 0
0.50555236 -3.6746611 0
-6.8351997 -10.619096 0
11.09723 3.4285016 0
-5.9830241 -1.9523665 0
3.9475782 5.3990082 0
7.6223768 8.2467955 0
-1.0947411 1.6571116 0
4.3795751 6.7032244 0
-12.039825 -4.5903283 0
1.6627637 10.173111 0
-3.6185138 -0.4161195 0
-2.51387 -7.4363523 0
7.4092799 9.3341053 0
9.7907235 -2.2473583 0
-5.0445603 3.7764681 0
12.146048 7.5606983 0
12.391411 -1.4552108 0
-5.0808359 5.6512017 0
-4.7358817 -0.94246566 0
1.6457969 -8.889708 0
0.28918046 5.4286302 0
6.1057492 10.179987 0
2.6861873 -9.5763982 0
-6.8352056 10.619086 0
0.50551196 3.6750541 0
-13.209307 -4.2330835 0