# vtk DataFile Version 4.0
hesp visualization file
ASCII
DATASET UNSTRUCTURED_GRID
POINTS 32 double
4.0419637 1.0518769 4
3.5281901 2.2715536 4
3.5281901 3.3407566 4
4.0419637 4.5604333 4
5.0629195 0.08630526 4
4.6859745 1.8032158 4
4.6859745 3.8090944 4
5.0629195 5.526005 4
7.712891 -0.89988878 4
6.0464909 0.90859555 4
6.0464909 4.7037147 4
7.712891 6.512199 4
9.5414752 -1.6047778 4
9.7565006 1.6608019 4
9.7565006 3.9515083 4
9.5414752 7.2170881 4
12.070835 -1.6047778 4
11.85581 1.6608019 4
11.85581 3.9515083 4
12.070835 7.2170881 4
13.899419 -0.89988878 4
15.565819 0.90859555 4
15.565819 4.7037147 4
13.899419 6.512199 4
16.549391 0.08630526 4
16.926336 1.8032158 4
16.926336 3.8090944 4
16.549391 5.526005 4
17.570347 1.0518769 4
18.08412 2.2715536 4
18.08412 3.3407566 4
17.570347 4.5604333 4
CELLS 0 0
CELL_TYPES 0
POINT_DATA 32
SCALARS m double
LOOKUP_TABLE default
1
1
1
1
1
1
1
1
1
1
1
1
1
1
1
1
1
1
1
1
1
1
1
1
1
1
1
1
1
1
1
1
VECTORS v double
-10.322305 -1.0308224 0
-12.390453 0.071253337 0
-12.390453 -0.071253337 0
-10.322305 1.0308224 0
-12.468178 -4.8899926 0
-9.7588219 -0.63766016 0
-9.7588219 0.63766016 0
-12.468178 4.8899926 0
-6.2602052 -8.7247382 0
-8.1062527 -3.1352451 0
-8.1062527 3.1352451 0
-6.2602052 8.7247382 0
-3.0524471 -7.7826712 0
-1.419808 -0.92848792 0
-1.419808 0.92848792 0
-3.0524471 7.7826712 0
3.0524471 -7.7826712 0
1.419808 -0.92848792 0
1.419808 0.92848792 0
3.0524471 7.7826712 0
6.2602052 -8.7247382 0
8.1062527 -3.1352451 0
8.1062527 3.1352451 0
6.2602052 8.7247382 0
12.468178 -4.8899926 0
9.7588219 -0.63766016 0
9.7588219 0.63766016 0
12.468178 4.8899926 0
10.322305 -1.0308224 0
12.390453 0.071253337 0
12.390453 -0.071253337 0
10.322305 1.0308224 0
