# vtk DataFile Version 4.0
hesp visualization file
ASCII
DATASET UNSTRUCTURED_GRID
POINTS 32 double
5.0073387 1.0770941 4
4.7727483 2.238119 4
4.7727483 3.3741913 4
5.0073387 4.5352161 4
6.2737677 0.55398877 4
5.7371139 1.9479793 4
5.7371139 3.664331 4
6.2737677 5.0583215 4
8.3398338 -0.027591247 4
6.8796794 1.2547042 4
6.8796794 4.357606 4
8.3398338 5.6399015 4
9.845755 -0.82585505 4
9.8993778 1.7540127 4
9.8993778 3.8582975 4
9.845755 6.4381653 4
11.766555 -0.82585505 4
11.712932 1.7540127 4
11.712932 3.8582975 4
11.766555 6.4381653 4
13.272476 -0.027591247 4
14.732631 1.2547042 4
14.732631 4.357606 4
13.272476 5.6399015 4
15.338543 0.55398877 4
15.875196 1.9479793 4
15.875196 3.664331 4
15.338543 5.0583215 4
16.604972 1.0770941 4
16.839562 2.238119 4
16.839562 3.3741913 4
16.604972 4.5352161 4
CELLS 0 0
CELL_TYPES 0
POINT_DATA 32
SCALARS m double
LOOKUP_TABLE default
1
1
1
1
1
1
1
1
1
1
1
1
1
1
1
1
1
1
1
1
1
1
1
1
1
1
1
1
1
1
1
1
VECTORS v double
-9.4319223 0.014571512 0
-12.162361 0.37703112 0
-12.162361 -0.37703112 0
-9.4319223 -0.014571512 0
-10.519421 -3.1396018 0
-11.193103 -1.6308185 0
-11.193103 1.6308185 0
-10.519421 3.1396018 0
-6.2799748 -8.7212776 0
-9.7533912 -5.1252256 0
-9.7533912 5.1252256 0
-6.2799748 8.7212776 0
-3.0318345 -7.7991337 0
-1.440853 -0.93576229 0
-1.440853 0.93576229 0
-3.0318345 7.7991337 0
3.0318345 -7.7991337 0
1.440853 -0.93576229 0
1.440853 0.93576229 0
3.0318345 7.7991337 0
6.2799748 -8.7212776 0
9.7533912 -5.1252256 0
9.7533912 5.1252256 0
6.2799748 8.7212776 0
10.519421 -3.1396018 0
11.193103 -1.6308185 0
11.193103 1.6308185 0
10.519421 3.1396018 0
9.4319223 0.014571512 0
12.162361 0.37703112 0
12.162361 -0.37703112 0
9.4319223 -0.014571512 0
