# vtk DataFile Version 4.0
hesp visualization file
ASCII
DATASET UNSTRUCTURED_GRID
POINTS 32 double
-1.6038261 0.33138898 4
-2.8512021 2.1830629 4
-2.8512021 3.4292473 4
-1.6038261 5.2809213 4
-1.5451353 -2.3637059 4
-0.40624907 1.7200744 4
-0.40624907 3.8922358 4
-1.5451353 7.9760162 4
4.4031471 -5.5253589 4
1.6592376 -0.77848558 4
1.6592376 6.3907958 4
4.4031471 11.137669 4
7.9153327 -5.7264288 4
9.0105219 1.1734986 4
9.0105219 4.4388117 4
7.9153327 11.338739 4
13.696978 -5.7264288 4
12.601788 1.1734986 4
12.601788 4.4388117 4
13.696978 11.338739 4
17.209163 -5.5253589 4
19.953073 -0.77848558 4
19.953073 6.3907958 4
17.209163 11.137669 4
23.157446 -2.3637059 4
22.018559 1.7200744 4
22.018559 3.8922358 4
23.157446 7.9760162 4
23.216136 0.33138898 4
24.463512 2.1830629 4
24.463512 3.4292473 4
23.216136 5.2809213 4
CELLS 0 0
CELL_TYPES 0
POINT_DATA 32
SCALARS m double
LOOKUP_TABLE default
1
1
1
1
1
1
1
1
1
1
1
1
1
1
1
1
1
1
1
1
1
1
1
1
1
1
1
1
1
1
1
1
VECTORS v double
-10.540921 -1.1790554 0
-11.922642 0.3016156 0
-11.922642 -0.3016156 0
-10.540921 1.1790554 0
-12.473591 -4.555426 0
-9.7959525 -0.25995095 0
-9.7959525 0.25995095 0
-12.473591 4.555426 0
-6.2400979 -8.7278352 0
-8.3091944 -3.1843885 0
-8.3091944 3.1843885 0
-6.2400979 8.7278352 0
-3.0729449 -7.7755179 0
-1.4036892 -0.91528049 0
-1.4036892 0.91528049 0
-3.0729449 7.7755179 0
3.0729449 -7.7755179 0
1.4036892 -0.91528049 0
1.4036892 0.91528049 0
3.0729449 7.7755179 0
6.2400979 -8.7278352 0
8.3091944 -3.1843885 0
8.3091944 3.1843885 0
6.2400979 8.7278352 0
12.473591 -4.555426 0
9.7959525 -0.25995095 0
9.7959525 0.25995095 0
12.473591 4.555426 0
10.540921 -1.1790554 0
11.922642 0.3016156 0
11.922642 -0.3016156 0
10.540921 1.1790554 0
