# vtk DataFile Version 4.0
hesp visualization file
ASCII
DATASET UNSTRUCTURED_GRID
POINTS 1250 double
30.345101 1.1249039 4
30.34511 2.2449742 4
30.34511 3.3673861 4
30.34511 4.4898482 4
30.34511 5.6123102 4
30.34511 6.7347723 4
30.34511 7.8572343 4
30.34511 8.9796964 4
30.34511 10.102158 4
30.34511 11.22462 4
30.34511 12.347083 4
30.34511 13.469545 4
30.34511 14.592007 4
30.34511 15.714469 4
30.34511 16.836931 4
30.34511 17.959393 4
30.34511 19.081855 4
30.34511 20.204317 4
30.34511 21.326779 4
30.34511 22.449241 4
30.34511 23.571703 4
30.34511 24.694165 4
30.34511 25.816627 4
30.34511 26.939039 4
30.345101 28.059109 4
30.981618 1.1159438 4
30.981546 2.2447537 4
30.981546 3.3673862 4
30.981546 4.4898482 4
30.981546 5.6123102 4
30.981546 6.7347723 4
30.981546 7.8572343 4
30.981546 8.9796964 4
30.981546 10.102158 4
30.981546 11.22462 4
30.981546 12.347083 4
30.981546 13.469545 4
30.981546 14.592007 4
30.981546 15.714469 4
30.981546 16.836931 4
30.981546 17.959393 4
30.981546 19.081855 4
30.981546 20.204317 4
30.981546 21.326779 4
30.981546 22.449241 4
30.981546 23.571703 4
30.981546 24.694165 4
30.981546 25.816627 4
30.981546 26.93926 4
30.981618 28.068069 4
31.671644 1.1288328 4
31.671722 2.2450761 4
31.671723 3.3673861 4
31.671723 4.4898482 4
31.671723 5.6123102 4
31.671723 6.7347723 4
31.671723 7.8572343 4
31.671723 8.9796964 4
31.671723 10.102158 4
31.671723 11.22462 4
31.671723 12.347083 4
31.671723 13.469545 4
31.671723 14.592007 4
31.671723 15.714469 4
31.671723 16.836931 4
31.671723 17.959393 4
31.671723 19.081855 4
31.671723 20.204317 4
31.671723 21.326779 4
31.671723 22.449241 4
31.671723 23.571703 4
31.671723 24.694165 4
31.671723 25.816627 4
31.671722 26.938937 4
31.671644 28.05518 4
32.308188 1.1210592 4
32.308182 2.2448795 4
32.308182 3.3673862 4
32.308182 4.4898482 4
32.308182 5.6123102 4
32.308182 6.7347723 4
32.308182 7.8572343 4
32.308182 8.9796964 4
32.308182 10.102158 4
32.308182 11.22462 4
32.308182 12.347083 4
32.308182 13.469545 4
32.308182 14.592007 4
32.308182 15.714469 4
32.308182 16.836931 4
32.308182 17.959393 4
32.308182 19.081855 4
32.308182 20.204317 4
32.308182 21.326779 4
32.308182 22.449241 4
32.308182 23.571703 4
32.308182 24.694165 4
32.308182 25.816627 4
32.308182 26.939134 4
32.308188 28.062954 4
32.998014 1.1239984 4
32.998014 2.2449556 4
32.998015 3.3673861 4
32.998015 4.4898482 4
32.998015 5.6123102 4
32.998015 6.7347723 4
32.998015 7.8572343 4
32.998015 8.9796964 4
32.998015 10.102158 4
32.998015 11.22462 4
32.998015 12.347083 4
32.998015 13.469545 4
32.998015 14.592007 4
32.998015 15.714469 4
32.998015 16.836931 4
32.998015 17.959393 4
32.998015 19.081855 4
32.998015 20.204317 4
32.998015 21.326779 4
32.998015 22.449241 4
32.998015 23.571703 4
32.998015 24.694165 4
32.998015 25.816627 4
32.998014 26.939058 4
32.998014 28.060015 4
33.634761 1.1228865 4
33.634761 2.2449269 4
33.634761 3.3673861 4
33.634761 4.4898482 4
33.634761 5.6123102 4
33.634761 6.7347723 4
33.634761 7.8572343 4
33.634761 8.9796964 4
33.634761 10.102158 4
33.634761 11.22462 4
33.634761 12.347083 4
33.634761 13.469545 4
33.634761 14.592007 4
33.634761 15.714469 4
33.634761 16.836931 4
33.634761 17.959393 4
33.634761 19.081855 4
33.634761 20.204317 4
33.634761 21.326779 4
33.634761 22.449241 4
33.634761 23.571703 4
33.634761 24.694165 4
33.634761 25.816627 4
33.634761 26.939086 4
33.634761 28.061127 4
34.757234 1.1228862 4
34.757234 2.2449269 4
34.757234 3.3673861 4
34.757234 4.4898482 4
34.757234 5.6123102 4
34.757234 6.7347723 4
34.757234 7.8572343 4
34.757234 8.9796964 4
34.757234 10.102158 4
34.757234 11.22462 4
34.757234 12.347083 4
34.757234 13.469545 4
34.757234 14.592007 4
34.757234 15.714469 4
34.757234 16.836931 4
34.757234 17.959393 4
34.757234 19.081855 4
34.757234 20.204317 4
34.757234 21.326779 4
34.757234 22.449241 4
34.757234 23.571703 4
34.757234 24.694165 4
34.757234 25.816627 4
34.757234 26.939086 4
34.757234 28.061127 4
35.879696 1.1228862 4
35.879696 2.2449269 4
35.879696 3.3673861 4
35.879696 4.4898482 4
35.879696 5.6123102 4
35.879696 6.7347723 4
35.879696 7.8572343 4
35.879696 8.9796964 4
35.879696 10.102158 4
35.879696 11.22462 4
35.879696 12.347083 4
35.879696 13.469545 4
35.879696 14.592007 4
35.879696 15.714469 4
35.879696 16.836931 4
35.879696 17.959393 4
35.879696 19.081855 4
35.879696 20.204317 4
35.879696 21.326779 4
35.879696 22.449241 4
35.879696 23.571703 4
35.879696 24.694165 4
35.879696 25.816627 4
35.879696 26.939086 4
35.879696 28.061127 4
37.002158 1.1228862 4
37.002158 2.2449269 4
37.002158 3.3673861 4
37.002158 4.4898482 4
37.002158 5.6123102 4
37.002158 6.7347723 4
37.002158 7.8572343 4
37.002158 8.9796964 4
37.002158 10.102158 4
37.002158 11.22462 4
37.002158 12.347083 4
37.002158 13.469545 4
37.002158 14.592007 4
37.002158 15.714469 4
37.002158 16.836931 4
37.002158 17.959393 4
37.002158 19.081855 4
37.002158 20.204317 4
37.002158 21.326779 4
37.002158 22.449241 4
37.002158 23.571703 4
37.002158 24.694165 4
37.002158 25.816627 4
37.002158 26.939086 4
37.002158 28.061127 4
38.12462 1.1228862 4
38.12462 2.2449269 4
38.12462 3.3673861 4
38.12462 4.4898482 4
38.12462 5.6123102 4
38.12462 6.7347723 4
38.12462 7.8572343 4
38.12462 8.9796964 4
38.12462 10.102158 4
38.12462 11.22462 4
38.12462 12.347083 4
38.12462 13.469545 4
38.12462 14.592007 4
38.12462 15.714469 4
38.12462 16.836931 4
38.12462 17.959393 4
38.12462 19.081855 4
38.12462 20.204317 4
38.12462 21.326779 4
38.12462 22.449241 4
38.12462 23.571703 4
38.12462 24.694165 4
38.12462 25.816627 4
38.12462 26.939086 4
38.12462 28.061127 4
39.247083 1.1228862 4
39.247083 2.2449269 4
39.247083 3.3673861 4
39.247083 4.4898482 4
39.247083 5.6123102 4
39.247083 6.7347723 4
39.247083 7.8572343 4
39.247083 8.9796964 4
39.247083 10.102158 4
39.247083 11.22462 4
39.247083 12.347083 4
39.247083 13.469545 4
39.247083 14.592007 4
39.247083 15.714469 4
39.247083 16.836931 4
39.247083 17.959393 4
39.247083 19.081855 4
39.247083 20.204317 4
39.247083 21.326779 4
39.247083 22.449241 4
39.247083 23.571703 4
39.247083 24.694165 4
39.247083 25.816627 4
39.247083 26.939086 4
39.247083 28.061127 4
40.369545 1.1228862 4
40.369545 2.2449269 4
40.369545 3.3673861 4
40.369545 4.4898482 4
40.369545 5.6123102 4
40.369545 6.7347723 4
40.369545 7.8572343 4
40.369545 8.9796964 4
40.369545 10.102158 4
40.369545 11.22462 4
40.369545 12.347083 4
40.369545 13.469545 4
40.369545 14.592007 4
40.369545 15.714469 4
40.369545 16.836931 4
40.369545 17.959393 4
40.369545 19.081855 4
40.369545 20.204317 4
40.369545 21.326779 4
40.369545 22.449241 4
40.369545 23.571703 4
40.369545 24.694165 4
40.369545 25.816627 4
40.369545 26.939086 4
40.369545 28.061127 4
41.492007 1.1228862 4
41.492007 2.2449269 4
41.492007 3.3673861 4
41.492007 4.4898482 4
41.492007 5.6123102 4
41.492007 6.7347723 4
41.492007 7.8572343 4
41.492007 8.9796964 4
41.492007 10.102158 4
41.492007 11.22462 4
41.492007 12.347083 4
41.492007 13.469545 4
41.492007 14.592007 4
41.492007 15.714469 4
41.492007 16.836931 4
41.492007 17.959393 4
41.492007 19.081855 4
41.492007 20.204317 4
41.492007 21.326779 4
41.492007 22.449241 4
41.492007 23.571703 4
41.492007 24.694165 4
41.492007 25.816627 4
41.492007 26.939086 4
41.492007 28.061127 4
42.614469 1.1228862 4
42.614469 2.2449269 4
42.614469 3.3673861 4
42.614469 4.4898482 4
42.614469 5.6123102 4
42.614469 6.7347723 4
42.614469 7.8572343 4
42.614469 8.9796964 4
42.614469 10.102158 4
42.614469 11.22462 4
42.614469 12.347083 4
42.614469 13.469545 4
42.614469 14.592007 4
42.614469 15.714469 4
42.614469 16.836931 4
42.614469 17.959393 4
42.614469 19.081855 4
42.614469 20.204317 4
42.614469 21.326779 4
42.614469 22.449241 4
42.614469 23.571703 4
42.614469 24.694165 4
42.614469 25.816627 4
42.614469 26.939086 4
42.614469 28.061127 4
43.736931 1.1228862 4
43.736931 2.2449269 4
43.736931 3.3673861 4
43.736931 4.4898482 4
43.736931 5.6123102 4
43.736931 6.7347723 4
43.736931 7.8572343 4
43.736931 8.9796964 4
43.736931 10.102158 4
43.736931 11.22462 4
43.736931 12.347083 4
43.736931 13.469545 4
43.736931 14.592007 4
43.736931 15.714469 4
43.736931 16.836931 4
43.736931 17.959393 4
43.736931 19.081855 4
43.736931 20.204317 4
43.736931 21.326779 4
43.736931 22.449241 4
43.736931 23.571703 4
43.736931 24.694165 4
43.736931 25.816627 4
43.736931 26.939086 4
43.736931 28.061127 4
44.859393 1.1228862 4
44.859393 2.2449269 4
44.859393 3.3673861 4
44.859393 4.4898482 4
44.859393 5.6123102 4
44.859393 6.7347723 4
44.859393 7.8572343 4
44.859393 8.9796964 4
44.859393 10.102158 4
44.859393 11.22462 4
44.859393 12.347083 4
44.859393 13.469545 4
44.859393 14.592007 4
44.859393 15.714469 4
44.859393 16.836931 4
44.859393 17.959393 4
44.859393 19.081855 4
44.859393 20.204317 4
44.859393 21.326779 4
44.859393 22.449241 4
44.859393 23.571703 4
44.859393 24.694165 4
44.859393 25.816627 4
44.859393 26.939086 4
44.859393 28.061127 4
45.981855 1.1228862 4
45.981855 2.2449269 4
45.981855 3.3673861 4
45.981855 4.4898482 4
45.981855 5.6123102 4
45.981855 6.7347723 4
45.981855 7.8572343 4
45.981855 8.9796964 4
45.981855 10.102158 4
45.981855 11.22462 4
45.981855 12.347083 4
45.981855 13.469545 4
45.981855 14.592007 4
45.981855 15.714469 4
45.981855 16.836931 4
45.981855 17.959393 4
45.981855 19.081855 4
45.981855 20.204317 4
45.981855 21.326779 4
45.981855 22.449241 4
45.981855 23.571703 4
45.981855 24.694165 4
45.981855 25.816627 4
45.981855 26.939086 4
45.981855 28.061127 4
47.104317 1.1228862 4
47.104317 2.2449269 4
47.104317 3.3673861 4
47.104317 4.4898482 4
47.104317 5.6123102 4
47.104317 6.7347723 4
47.104317 7.8572343 4
47.104317 8.9796964 4
47.104317 10.102158 4
47.104317 11.22462 4
47.104317 12.347083 4
47.104317 13.469545 4
47.104317 14.592007 4
47.104317 15.714469 4
47.104317 16.836931 4
47.104317 17.959393 4
47.104317 19.081855 4
47.104317 20.204317 4
47.104317 21.326779 4
47.104317 22.449241 4
47.104317 23.571703 4
47.104317 24.694165 4
47.104317 25.816627 4
47.104317 26.939086 4
47.104317 28.061127 4
48.226779 1.1228862 4
48.226779 2.2449269 4
48.226779 3.3673861 4
[...]
POINT_DATA 1250
SCALARS m double
LOOKUP_TABLE default
1
1
1
1
1
1
1
1
1
1
1
1
1
1
1
1
1
1
1
1
1
1
1
1
1
1
1
1
1
1
1
1
1
1
1
1
1
1
1
1
1
1
1
1
1
1
1
1
1
1
1
1
1
1
1
1
1
1
1
1
1
1
1
1
1
1
1
1
1
1
1
1
1
1
1
1
1
1
1
1
1
1
1
1
1
1
1
1
1
1
1
1
1
1
1
1
1
1
1
1
1
1
1
1
1
1
1
1
1
1
1
1
1
1
1
1
1
1
1
1
1
1
1
1
1
1
1
1
1
1
1
1
1
1
1
1
1
1
1
1
1
1
1
1
1
1
1
1
1
1
1
1
1
1
1
1
1
1
1
1
1
1
1
1
1
1
1
1
1
1
1
1
1
1
1
1
1
1
1
1
1
1
1
1
1
1
1
1
1
1
1
1
1
1
1
1
1
1
1
1
1
1
1
1
1
1
1
1
1
1
1
1
1
1
1
1
1
1
1
1
1
1
1
1
1
1
1
1
1
1
1
1
1
1
1
1
1
1
1
1
1
1
1
1
1
1
1
1
1
1
1
1
1
1
1
1
1
1
1
1
1
1
1
1
1
1
1
1
1
1
1
1
1
1
1
1
1
1
1
1
1
1
1
1
1
1
1
1
1
1
1
1
1
1
1
1
1
1
1
1
1
1
1
1
1
1
1
1
1
1
1
1
1
1
1
1
1
1
1
1
1
1
1
1
1
1
1
1
1
1
1
1
1
1
1
1
1
1
1
1
1
1
1
1
1
1
1
1
1
1
1
1
1
1
1
1
1
1
1
1
1
1
1
1
1
1
1
1
1
1
1
1
1
1
1
1
1
1
1
1
1
1
1
1
1
1
1
1
1
1
1
1
1
1
1
1
1
1
1
1
1
1
1
1
1
1
1
1
1
1
1
1
1
1
1
1
1
1
1
1
1
1
1
1
1
1
1
1
1
1
1
1
1
1
1
1
1
1
1
1
1
1
1
1
1
1
1
1
1
1
1
1
1
1
1
1
1
1
1
1
1
1
1
1
1
1
1
1
1
1
1
1
1
1
1
1
1
1
1
1
1
1
1
1
1
1
1
1
1
1
1
1
1
1
1
1
1
1
1
1
1
1
1
1
1
1
1
1
1
1
1
1
1
1
1
1
1
1
1
1
1
1
1
1
1
1
1
1
1
1
1
1
1
1
1
1
1
1
1
1
1
1
1
1
1
1
1
1
1
1
1
1
1
1
1
1
1
1
1
1
1
1
1
1
1
1
1
1
1
1
1
1
1
1
1
1
1
1
1
1
1
1
1
1
1
1
1
1
1
1
1
1
1
1
1
1
1
1
1
1
1
1
1
1
1
1
1
1
1
1
1
1
1
1
1
1
1
1
1
1
1
1
1
1
1
1
1
1
1
1
1
1
1
1
1
1
1
1
1
1
1
1
1
1
1
1
1
1
1
1
1
1
1
1
1
1
1
1
1
1
1
1
1
1
1
1
1
1
1
1
1
1
1
1
1
1
1
1
1
1
1
1
1
1
1
1
1
1
1
1
1
1
1
1
1
1
1
1
1
1
1
1
1
1
1
1
1
1
1
1
1
1
1
1
1
1
1
1
1
1
1
1
1
1
1
1
1
1
1
1
1
1
1
1
1
1
1
1
1
1
1
1
1
1
1
1
1
1
1
1
1
1
1
1
1
1
1
1
1
1
1
1
1
1
1
1
1
1
1
1
1
1
1
1
1
1
1
1
1
1
1
1
1
1
1
1
1
1
1
1
1
1
1
1
1
1
1
1
1
1
1
1
1
1
1
1
1
1
1
1
1
1
1
1
1
1
1
1
1
1
1
1
1
1
1
1
1
1
1
1
1
1
1
1
1
1
1
1
1
1
1
1
1
1
1
1
1
1
1
1
1
1
1
1
1
1
1
1
1
1
1
1
1
1
1
1
1
1
1
1
1
1
1
1
1
1
1
1
1
1
1
1
1
1
1
1
1
1
1
1
1
1
1
1
1
1
1
1
1
1
1
1
1
1
1
1
1
1
1
1
1
1
1
1
1
1
1
1
1
1
1
1
1
1
1
1
1
1
1
1
1
1
1
1
1
1
1
1
1
1
1
1
1
1
1
1
1
1
1
1
1
1
1
1
1
1
1
1
1
1
1
1
1
1
1
1
1
1
1
1
1
1
1
1
1
1
1
1
1
1
1
1
1
1
1
1
1
1
1
1
1
1
1
1
1
1
1
1
1
1
1
1
1
1
1
1
1
1
1
1
1
1
1
1
1
1
1
1
1
1
1
1
1
1
1
1
1
1
1
1
1
1
1
1
1
1
1
1
1
1
1
1
1
1
1
1
1
1
1
1
1
1
1
1
1
1
1
1
1
1
1
1
1
1
1
1
1
1
1
1
1
1
1
1
1
1
1
1
1
1
1
1
1
1
1
1
1
1
1
1
1
1
1
1
1
1
1
1
1
1
1
1
1
1
1
1
1
1
1
1
1
1
1
1
1
1
1
1
1
1
1
1
1
1
1
1
1
1
1
1
1
1
1
1
1
1
1
1
1
1
1
1
1
1
1
1
1
1
1
1
1
1
1
1
1
1
1
1
1
1
1
1
1
1
1
1
1
1
1
1
1
1
1
1
1
1
1
1
1
1
1
1
1
1
1
1
1
1
1
1
1
1
1
1
1
1
1
1
1
1
1
1
1
1
1
1
1
1
1
1
1
1
1
1
1
1
1
1
1
1
1
1
1
1
1
1
1
1
1
1
1
1
1
1
1
1
1
1
1
1
1
1
1
1
1
1
1
1
1
1
VECTORS v double
10.006373 0.029850337 0
10.006451 0.00065421112 0
10.006452 -2.9593065e-07 0
10.006452 -9.2722664e-10 0
10.006452 -2.5833489e-10 0
10.006452 2.1040508e-13 0
10.006452 -1.0346066e-13 0
10.006452 -4.1488876e-13 0
10.006452 2.56116e-15 0
10.006452 -2.0910996e-13 0
10.006452 -4.1383972e-13 0
10.006452 -6.185306e-13 0
10.006452 6.8482524e-12 0
10.006452 6.2065334e-13 0
10.006452 4.1385004e-13 0
10.006452 4.1608757e-13 0
10.006452 -2.2787829e-15 0
10.006452 -1.1263775e-17 0
10.006452 8.6822549e-17 0
10.006452 -4.1224908e-13 0
10.006452 -7.3972417e-13 0
10.006452 9.2362943e-10 0
10.006452 2.9610814e-07 0
10.006451 -0.00065421091 0
10.006373 -0.029850337 0
-10.00308 -0.22736956 0
-10.005598 -0.0057293855 0
-10.0056 1.390107e-06 0
-10.0056 4.3139574e-09 0
-10.0056 8.6405841e-11 0
-10.0056 1.2773223e-13 0
-10.0056 -6.4671315e-14 0
-10.0056 -2.5971215e-13 0
-10.0056 2.425309e-15 0
-10.0056 -1.314321e-13 0
-10.0056 -2.5871883e-13 0
-10.0056 -3.8601202e-13 0
-10.0056 -5.1907426e-13 0
-10.0056 3.8792615e-13 0
-10.0056 2.5872665e-13 0
-10.0056 2.6084596e-13 0
-10.0056 -2.1582117e-15 0
-10.0056 -1.027898e-17 0
-10.0056 8.2476753e-17 0
-10.0056 -2.5674939e-13 0
-10.0056 -2.4150906e-13 0
-10.0056 -4.3309654e-09 0
-10.0056 -1.3914062e-06 0
-10.005598 0.0057293843 0
-10.00308 0.22736956 0
10.004222 0.21927696 0
10.006774 0.0054391356 0
10.006776 -1.3218467e-06 0
10.006776 -3.9118256e-09 0
10.006776 -7.0170215e-11 0
10.006776 1.5163707e-13 0
10.006776 -7.5920271e-14 0
10.006776 -3.0461115e-13 0
10.006776 2.278789e-15 0
10.006776 -1.5378502e-13 0
10.006776 -3.0367664e-13 0
10.006776 -4.5356537e-13 0
10.006776 -6.0923652e-13 0
10.006776 4.5538127e-13 0
10.006776 3.036841e-13 0
10.006776 3.0567441e-13 0
10.006776 -2.0292511e-15 0
10.006776 -9.1308805e-18 0
10.006776 7.8353973e-17 0
10.006776 -3.0176886e-13 0
10.006776 -3.8135093e-13 0
10.006776 3.9299117e-09 0
10.006776 1.3230754e-06 0
10.006774 -0.0054391344 0
10.004222 -0.21927696 0
-10.004284 -0.053245103 0
-10.004455 -0.0014353235 0
-10.004455 2.0050288e-07 0
-10.004455 4.4132821e-10 0
-10.004455 4.7287203e-13 0
-10.004455 1.2842887e-13 0
-10.004455 -6.4063665e-14 0
-10.004455 -2.5715285e-13 0
-10.004455 2.1322948e-15 0
-10.004455 -1.2996058e-13 0
-10.004455 -2.562782e-13 0
-10.004455 -3.8259241e-13 0
-10.004455 -5.143197e-13 0
-10.004455 3.8429238e-13 0
-10.004455 2.5628484e-13 0
-10.004455 2.5814711e-13 0
-10.004455 -1.8989575e-15 0
-10.004455 -7.9873318e-18 0
-10.004455 7.2875305e-17 0
-10.004455 -2.5469137e-13 0
-10.004455 -3.4971253e-13 0
-10.004455 -4.5119383e-10 0
-10.004455 -2.0084432e-07 0
-10.004455 0.0014353231 0
-10.004284 0.053245103 0
10.005205 0.048839349 0
10.005298 0.0012080363 0
10.005298 -2.1539432e-07 0
10.005298 -4.9558826e-10 0
10.005298 4.9188194e-14 0
10.005298 3.7172457e-15 0
10.005298 -1.8444721e-15 0
10.005298 -8.2101477e-15 0
10.005298 1.9865953e-15 0
10.005298 -5.3938877e-15 0
10.005298 -7.3946028e-15 0
10.005298 -9.391643e-15 0
10.005298 -1.6431525e-14 0
10.005298 1.0975599e-14 0
10.005298 7.4005137e-15 0
10.005298 9.135025e-15 0
10.005298 -1.7702136e-15 0
10.005298 -6.835497e-18 0
10.005298 6.8203601e-17 0
10.005298 -5.7529712e-15 0
10.005298 -4.6678626e-14 0
10.005298 5.0367827e-10 0
10.005298 2.1567293e-07 0
10.005298 -0.001208036 0
10.005205 -0.048839349 0
-10.002015 0.0027691322 0
-10.002038 1.7432171e-05 0
-10.002038 -2.7642636e-08 0
-10.002038 -9.0581626e-11 0
-10.002038 4.5000507e-14 0
-10.002038 5.6734467e-17 0
-10.002038 -1.5253558e-18 0
-10.002038 -7.8338736e-16 0
-10.002038 1.8506533e-15 0
-10.002038 -1.591077e-15 0
-10.002038 -2.3044451e-17 0
-10.002038 1.5488452e-15 0
-10.002038 -1.5761283e-15 0
-10.002038 -7.2570063e-17 0
-10.002038 2.8241459e-17 0
-10.002038 1.6434474e-15 0
-10.002038 -1.6494245e-15 0
-10.002038 -5.8933204e-18 0
-10.002038 6.3981326e-17 0
-10.002038 1.4737975e-15 0
-10.002038 -4.6159248e-14 0
-10.002038 9.0581181e-11 0
-10.002038 2.764265e-08 0
-10.002038 -1.7432171e-05 0
-10.002015 -0.0027691322 0
-10.000004 0.002738021 0
-10.000006 1.6661248e-05 0
-10.000006 -2.3264996e-08 0
-10.000006 -4.961971e-11 0
-10.000006 3.4755632e-14 0
-10.000006 3.7207908e-17 0
-10.000006 -2.3587495e-18 0
-10.000006 -7.8213107e-16 0
-10.000006 1.8387368e-15 0
-10.000006 -1.5827763e-15 0
-10.000006 -2.6640155e-17 0
-10.000006 1.5330213e-15 0
-10.000006 -1.5738428e-15 0
-10.000006 -6.5960477e-17 0
-10.000006 3.1796901e-17 0
-10.000006 1.6365678e-15 0
-10.000006 -1.6387662e-15 0
-10.000006 -5.6564172e-18 0
-10.000006 6.3458241e-17 0
-10.000006 1.4813949e-15 0
-10.000006 -3.5882776e-14 0
-10.000006 4.9619261e-11 0
-10.000006 2.3264995e-08 0
-10.000006 -1.6661248e-05 0
-10.000004 -0.002738021 0
-10 0.002737334 0
-10 1.6661945e-05 0
-10 -2.3251564e-08 0
-10 -4.9623113e-11 0
-10 3.4745019e-14 0
-10 3.707743e-17 0
-10 -2.3344136e-18 0
-10 -7.8187998e-16 0
-10 1.838648e-15 0
-10 -1.5826725e-15 0
-10 -2.6395674e-17 0
-10 1.5332622e-15 0
-10 -1.5734654e-15 0
-10 -6.6248342e-17 0
-10 3.1427756e-17 0
-10 1.6363427e-15 0
-10 -1.6386298e-15 0
-10 -5.6559232e-18 0
-10 6.336439e-17 0
-10 1.4815702e-15 0
-10 -3.5872037e-14 0
-10 4.9622669e-11 0
-10 2.3251563e-08 0
-10 -1.6661945e-05 0
-10 -0.002737334 0
-10 0.002737334 0
-10 1.6661945e-05 0
-10 -2.3251564e-08 0
-10 -4.9623116e-11 0
-10 3.4745091e-14 0
-10 3.7052685e-17 0
-10 -2.2791104e-18 0
-10 -7.8204244e-16 0
-10 1.8385476e-15 0
-10 -1.5825358e-15 0
-10 -2.6489529e-17 0
-10 1.5330176e-15 0
-10 -1.573233e-15 0
-10 -6.6318553e-17 0
-10 3.1416711e-17 0
-10 1.6363191e-15 0
-10 -1.6385329e-15 0
-10 -5.6572031e-18 0
-10 6.332564e-17 0
-10 1.4815946e-15 0
-10 -3.5872077e-14 0
-10 4.9622672e-11 0
-10 2.3251564e-08 0
-10 -1.6661945e-05 0
-10 -0.002737334 0
-10 0.002737334 0
-10 1.6661945e-05 0
-10 -2.3251564e-08 0
-10 -4.9623115e-11 0
-10 3.4744935e-14 0
-10 3.7054555e-17 0
-10 -2.3375794e-18 0
-10 -7.8225123e-16 0
-10 1.8386379e-15 0
-10 -1.5822868e-15 0
-10 -2.6498793e-17 0
-10 1.5330129e-15 0
-10 -1.5732176e-15 0
-10 -6.6239378e-17 0
-10 3.141435e-17 0
-10 1.6363492e-15 0
-10 -1.6385816e-15 0
-10 -5.6558045e-18 0
-10 6.3309604e-17 0
-10 1.4816179e-15 0
-10 -3.5871908e-14 0
-10 4.9622671e-11 0
-10 2.3251564e-08 0
-10 -1.6661945e-05 0
-10 -0.002737334 0
-10 0.002737334 0
-10 1.6661945e-05 0
-10 -2.3251564e-08 0
-10 -4.9623116e-11 0
-10 3.474496e-14 0
-10 3.7129647e-17 0
-10 -2.3255007e-18 0
-10 -7.8187649e-16 0
-10 1.8384811e-15 0
-10 -1.5827394e-15 0
-10 -2.663135e-17 0
-10 1.5330794e-15 0
-10 -1.5733468e-15 0
-10 -6.6283538e-17 0
-10 3.1600888e-17 0
-10 1.6363521e-15 0
-10 -1.6385914e-15 0
-10 -5.6634586e-18 0
-10 6.334491e-17 0
-10 1.4815811e-15 0
-10 -3.5872058e-14 0
-10 4.9622671e-11 0
-10 2.3251564e-08 0
-10 -1.6661945e-05 0
-10 -0.002737334 0
-10 0.002737334 0
-10 1.6661945e-05 0
-10 -2.3251564e-08 0
-10 -4.9623116e-11 0
-10 3.4745082e-14 0
-10 3.713432e-17 0
-10 -2.2874932e-18 0
-10 -7.8209507e-16 0
-10 1.8385554e-15 0
-10 -1.5825651e-15 0
-10 -2.6540988e-17 0
-10 1.5329485e-15 0
-10 -1.5732294e-15 0
-10 -6.6222034e-17 0
-10 3.172775e-17 0
-10 1.6363666e-15 0
-10 -1.638534e-15 0
-10 -5.6572207e-18 0
-10 6.3327866e-17 0
-10 1.4815513e-15 0
-10 -3.5872115e-14 0
-10 4.9622672e-11 0
-10 2.3251564e-08 0
-10 -1.6661945e-05 0
-10 -0.002737334 0
-10 0.002737334 0
-10 1.6661945e-05 0
-10 -2.3251564e-08 0
-10 -4.9623116e-11 0
-10 3.4745052e-14 0
-10 3.7054439e-17 0
-10 -2.3409993e-18 0
-10 -7.8227501e-16 0
-10 1.8386448e-15 0
-10 -1.5822942e-15 0
-10 -2.6513237e-17 0
-10 1.5329935e-15 0
-10 -1.5733992e-15 0
-10 -6.6197946e-17 0
-10 3.1427641e-17 0
-10 1.6363684e-15 0
-10 -1.6385854e-15 0
-10 -5.6557869e-18 0
-10 6.3313418e-17 0
-10 1.4815985e-15 0
-10 -3.5872283e-14 0
-10 4.9622672e-11 0
-10 2.3251564e-08 0
-10 -1.6661945e-05 0
-10 -0.002737334 0
-10 0.002737334 0
-10 1.6661945e-05 0
-10 -2.3251564e-08 0
-10 -4.9623116e-11 0
-10 3.47451e-14 0
-10 3.7059667e-17 0
-10 -2.3410113e-18 0
-10 -7.8187174e-16 0
-10 1.8386448e-15 0
-10 -1.5826976e-15 0
-10 -2.6513286e-17 0
-10 1.5331278e-15 0
-10 -1.5733993e-15 0
-10 -6.6197873e-17 0
-10 3.1427689e-17 0
-10 1.6363685e-15 0
-10 -1.6385854e-15 0
-10 -5.6557869e-18 0
-10 6.3313418e-17 0
-10 1.4815988e-15 0
-10 -3.5872184e-14 0
-10 4.9622672e-11 0
-10 2.3251564e-08 0
-10 -1.6661945e-05 0
-10 -0.002737334 0
-10 0.002737334 0
-10 1.6661945e-05 0
-10 -2.3251564e-08 0
-10 -4.9623116e-11 0
-10 3.4745124e-14 0
-10 3.7137995e-17 0
-10 -2.3290654e-18 0
-10 -7.8189953e-16 0
-10 1.838488e-15 0
-10 -1.5827479e-15 0
-10 -2.6645917e-17 0
-10 1.5330591e-15 0
-10 -1.5735314e-15 0
-10 -6.6241765e-17 0
-10 3.1614634e-17 0
-10 1.6363714e-15 0
-10 -1.6385952e-15 0
-10 -5.663462e-18 0
-10 6.3348792e-17 0
-10 1.4815618e-15 0
-10 -3.5872145e-14 0
-10 4.9622672e-11 0
-10 2.3251564e-08 0
-10 -1.6661945e-05 0
-10 -0.002737334 0
-10 0.002737334 0
-10 1.6661945e-05 0
-10 -2.3251564e-08 0
-10 -4.9623116e-11 0
-10 3.4745084e-14 0
-10 3.7128145e-17 0
-10 -2.287784e-18 0
-10 -7.8209535e-16 0
-10 1.8385554e-15 0
-10 -1.5825644e-15 0
-10 -2.6541571e-17 0
-10 1.5329491e-15 0
-10 -1.5732286e-15 0
-10 -6.6222276e-17 0
-10 3.1727227e-17 0
-10 1.6363668e-15 0
-10 -1.6385347e-15 0
-10 -5.6572031e-18 0
-10 6.3328242e-17 0
-10 1.4815513e-15 0
-10 -3.5872196e-14 0
-10 4.9622672e-11 0
-10 2.3251564e-08 0
-10 -1.6661945e-05 0
-10 -0.002737334 0
-10 0.002737334 0
-10 1.6661945e-05 0
-10 -2.3251564e-08 0
-10 -4.9623115e-11 0
-10 3.4744927e-14 0
-10 3.7054579e-17 0
-10 -2.3375914e-18 0
-10 -7.8225128e-16 0
-10 1.8386379e-15 0
-10 -1.5822868e-15 0
-10 -2.6498841e-17 0
-10 1.5330128e-15 0
-10 -1.5733496e-15 0
-10 -6.6239306e-17 0
-10 3.1414399e-17 0
-10 1.6363493e-15 0
-10 -1.6385816e-15 0
-10 -5.6558045e-18 0
-10 6.3309604e-17 0
-10 1.4816178e-15 0
-10 -3.5871958e-14 0
-10 4.9622671e-11 0
-10 2.3251564e-08 0
-10 -1.6661945e-05 0
-10 -0.002737334 0
-10 0.002737334 0
-10 1.6661945e-05 0
-10 -2.3251564e-08 0
-10 -4.9623116e-11 0
-10 3.4745056e-14 0
-10 3.7069912e-17 0
-10 -2.3409377e-18 0
-10 -7.81872e-16 0
-10 1.8386448e-15 0
-10 -1.5826972e-15 0
-10 -2.6513756e-17 0
-10 1.5331285e-15 0
-10 -1.5733985e-15 0
-10 -6.6198219e-17 0
-10 3.1427005e-17 0
-10 1.6363685e-15 0
-10 -1.6385858e-15 0
-10 -5.6557693e-18 0
-10 6.3313763e-17 0
-10 1.4815987e-15 0
-10 -3.5872028e-14 0
-10 4.9622672e-11 0
-10 2.3251564e-08 0
-10 -1.6661945e-05 0
-10 -0.002737334 0
-10 0.002737334 0
-10 1.6661945e-05 0
-10 -2.3251564e-08 0
-10 -4.9623116e-11 0
-10 3.474506e-14 0
-10 3.7066698e-17 0
-10 -2.3410488e-18 0
-10 -7.8187133e-16 0
-10 1.8386448e-15 0
-10 -1.5826979e-15 0
-10 -2.651267e-17 0
-10 1.5331273e-15 0
-10 -1.5735334e-15 0
-10 -6.6197745e-17 0
-10 3.1428228e-17 0
-10 1.6363683e-15 0
-10 -1.6385851e-15 0
-10 -5.6558045e-18 0
-10 6.3313073e-17 0
-10 1.4815988e-15 0
-10 -3.5872029e-14 0
-10 4.9622672e-11 0
-10 2.3251564e-08 0
-10 -1.6661945e-05 0
-10 -0.002737334 0
-10 0.002737334 0
-10 1.6661945e-05 0
-10 -2.3251564e-08 0
-10 -4.9623115e-11 0
-10 3.4744898e-14 0
-10 3.716792e-17 0
-10 -2.2919243e-18 0
-10 -7.8205332e-16 0
-10 1.8386138e-15 0
-10 -1.5826783e-15 0
-10 -2.6615865e-17 0
-10 1.5330453e-15 0
-10 -1.573426e-15 0
-10 -6.6303491e-17 0
-10 3.157782e-17 0
-10 1.6362568e-15 0
-10 -1.6385046e-15 0
-10 -5.6648925e-18 0
-10 6.3329329e-17 0
-10 1.4814304e-15 0
-10 -3.5872037e-14 0
-10 4.9622672e-11 0
-10 2.3251564e-08 0
-10 -1.6661945e-05 0
-10 -0.002737334 0
-10 0.002737334 0
-10 1.6661945e-05 0
-10 -2.3251564e-08 0
-10 -4.9623116e-11 0
-10 3.4745356e-14 0
-10 3.7275312e-17 0
-10 -2.3561501e-18 0
-10 -7.8248121e-16 0
-10 1.8389222e-15 0
-10 -1.5827801e-15 0
-10 -2.6581793e-17 0
-10 1.5331459e-15 0
-10 -1.5739959e-15 0
-10 -6.5605311e-17 0
-10 3.1629604e-17 0
-10 1.6364521e-15 0
-10 -1.6386552e-15 0
-10 -5.6580045e-18 0
-10 6.3421426e-17 0
-10 1.4809199e-15 0
-10 -3.5872179e-14 0
-10 4.9622672e-11 0
-10 2.3251564e-08 0
-10 -1.6661945e-05 0
-10 -0.002737334 0
-10 0.002737334 0
-10 1.6661945e-05 0
-10 -2.3251564e-08 0
-10 -4.9623114e-11 0
-10 3.4745207e-14 0
-10 3.7228368e-17 0
-10 -2.3381523e-18 0
-10 -7.8213716e-16 0
-10 1.8386904e-15 0
-10 -1.5826904e-15 0
-10 -2.6575932e-17 0
-10 1.5330917e-15 0
-10 -1.5738148e-15 0
-10 -6.6025395e-17 0
-10 3.1602928e-17 0
-10 1.6364997e-15 0
-10 -1.6388091e-15 0
-10 -5.6594539e-18 0
-10 6.3605426e-17 0
-10 1.4811853e-15 0
-10 -3.5872103e-14 0
-10 4.9622669e-11 0
-10 2.3251564e-08 0
-10 -1.6661945e-05 0
-10 -0.002737334 0
-10 0.0027373345 0
-10 1.6661943e-05 0
-10 -2.3251674e-08 0
-10 -4.9623086e-11 0
-10 3.4744442e-14 0
-10 3.7108646e-17 0
-10 -2.2425753e-18 0
-10 -7.815945e-16 0
-10 1.8385152e-15 0
-10 -1.5824403e-15 0
-10 -2.6229306e-17 0
-10 1.5335631e-15 0
-10 -1.57251e-15 0
-10 -6.7145741e-17 0
-10 3.1336996e-17 0
-10 1.6359647e-15 0
-10 -1.6387733e-15 0
-10 -5.6594624e-18 0
-10 6.3575249e-17 0
-10 1.4816213e-15 0
-10 -3.5871649e-14 0
-10 4.9622629e-11 0
-10 2.3251674e-08 0
-10 -1.6661943e-05 0
-10 -0.0027373345 0
-10.000017 0.0027373934 0
-10.000017 1.6669231e-05 0
-10.000017 -2.3255337e-08 0
-10.000017 -4.9638109e-11 0
-10.000017 3.4754351e-14 0
-10.000017 3.7582352e-17 0
-10.000017 -2.506959e-18 0
-10.000017 -7.834445e-16 0
-10.000017 1.8385615e-15 0
-10.000017 -1.5830447e-15 0
-10.000017 -2.7589225e-17 0
-10.000017 1.5316251e-15 0
-10.000017 -1.5761002e-15 0
-10.000017 -6.461615e-17 0
-10.000017 3.2791483e-17 0
-10.000017 1.6374397e-15 0
-10.000017 -1.63914e-15 0
-10.000017 -5.6597204e-18 0
-10.000017 6.3924659e-17 0
-10.000017 1.4801629e-15 0
-10.000017 -3.5879334e-14 0
-10.000017 4.9637621e-11 0
-10.000017 2.3255337e-08 0
-10.000017 -1.6669231e-05 0
-10.000017 -0.0027373934 0
-10.002586 0.0025862575 0
-10.002737 1.6835854e-05 0
-10.002737 -2.2452578e-08 0
-10.002737 -5.0120944e-11 0
-10.002737 3.3736788e-14 0
-10.002737 3.8549934e-17 0
-10.002737 -2.675045e-18 0
-10.002737 -7.6452029e-16 0
-10.002737 1.7918291e-15 0
-10.002737 -1.5432214e-15 0
-10.002737 -2.7831954e-17 0
-10.002737 1.4915914e-15 0
-10.002737 -1.5381104e-15 0
-10.002737 -6.1821603e-17 0
-10.002737 3.3113516e-17 0
-10.002737 1.5967178e-15 0
-10.002737 -1.5977661e-15 0
-10.002737 -5.6596463e-18 0
-10.002737 6.2701827e-17 0
-10.002737 1.440323e-15 0
-10.002737 -3.4811552e-14 0
-10.002737 5.0120157e-11 0
-10.002737 2.2452579e-08 0
-10.002737 -1.6835854e-05 0
-10.002586 -0.0025862575 0
-10.006373 0.029850337 0
-10.006451 0.00065421107 0
-10.006452 -2.9600072e-07 0
-10.006452 -9.3114708e-10 0
-10.006452 2.6696112e-10 0
-10.006452 2.8885196e-13 0
-10.006452 -1.4654445e-13 0
-10.006452 -5.8722546e-13 0
-10.006452 2.56023e-15 0
-10.006452 -2.9527886e-13 0
-10.006452 -5.8617687e-13 0
-10.006452 -8.7679594e-13 0
-10.006452 -8.483206e-12 0
-10.006452 8.7940468e-13 0
-10.006452 5.861881e-13 0
-10.006452 5.8842487e-13 0
-10.006452 -2.2784247e-15 0
-10.006452 -1.1430127e-17 0
-10.006452 8.6190527e-17 0
-10.006452 -5.8458422e-13 0
-10.006452 -9.120533e-13 0
-10.006452 9.3645442e-10 0
-10.006452 2.9608522e-07 0
-10.006451 -0.00065421103 0
-10.006373 -0.029850337 0
10.00308 -0.22736956 0
10.005598 -0.0057293855 0
10.0056 1.3901082e-06 0
10.0056 4.2808346e-09 0
10.0056 -1.2115142e-10 0
10.0056 2.6979506e-13 0
10.0056 -1.3367177e-13 0
10.0056 -5.3567514e-13 0
10.0056 2.4257304e-15 0
10.0056 -2.6941353e-13 0
10.0056 -5.3468074e-13 0
10.0056 -7.9988006e-13 0
10.0056 -1.0358432e-12 0
10.0056 8.019523e-13 0
10.0056 5.3469016e-13 0
10.0056 5.3680904e-13 0
10.0056 -2.1584538e-15 0
10.0056 -1.0282385e-17 0
10.0056 8.252329e-17 0
10.0056 -5.3271697e-13 0
10.0056 -5.2399372e-13 0
10.0056 -4.3500926e-09 0
10.0056 -1.3913789e-06 0
10.005598 0.0057293843 0
10.00308 0.22736956 0
-10.004222 0.21927696 0
-10.006774 0.0054391356 0
-10.006776 -1.3218417e-06 0
-10.006776 -3.876409e-09 0
-10.006776 9.8911197e-11 0
-10.006776 1.1644272e-13 0
-10.006776 -5.8096929e-14 0
-10.006776 -2.3336323e-13 0
-10.006776 2.2790369e-15 0
-10.006776 -1.1816171e-13 0
-10.006776 -2.3242894e-13 0
-10.006776 -3.4667971e-13 0
-10.006776 -3.903954e-13 0
-10.006776 3.4852523e-13 0
-10.006776 2.3243631e-13 0
-10.006776 2.3442739e-13 0
-10.006776 -2.0287759e-15 0
-10.006776 -9.1364303e-18 0
-10.006776 7.7803371e-17 0
-10.006776 -2.3052383e-13 0
-10.006776 -3.8711176e-13 0
-10.006776 3.9492786e-09 0
-10.006776 1.3230491e-06 0
-10.006774 -0.0054391344 0
-10.004222 -0.21927696 0
10.004284 -0.053245103 0
10.004455 -0.0014353235 0
10.004455 2.0049114e-07 0
10.004455 4.2437963e-10 0
10.004455 2.8381419e-13 0
10.004455 6.1977552e-14 0
10.004455 -3.0969793e-14 0
10.004455 -1.2475625e-13 0
10.004455 2.1322136e-15 0
10.004455 -6.3762737e-14 0
10.004455 -1.2388183e-13 0
10.004455 -1.8399722e-13 0
10.004455 -2.4952832e-13 0
10.004455 1.856981e-13 0
10.004455 1.2388847e-13 0
10.004455 1.2575105e-13 0
10.004455 -1.898606e-15 0
10.004455 -7.9923387e-18 0
10.004455 7.2593271e-17 0
10.004455 -1.2229227e-13 0
10.004455 -2.1707707e-13 0
10.004455 -4.6034203e-10 0
10.004455 -2.0083584e-07 0
10.004455 0.0014353231 0
10.004284 0.053245103 0
-10.005205 0.048839349 0
-10.005298 0.0012080363 0
-10.005298 -2.1538495e-07 0
-10.005298 -4.8161183e-10 0
-10.005298 3.7453611e-13 0
-10.005298 1.1221006e-13 0
-10.005298 -5.6098747e-14 0
-10.005298 -2.2522536e-13 0
-10.005298 1.9869625e-15 0
-10.005298 -1.1390237e-13 0
-10.005298 -2.244102e-13 0
-10.005298 -3.3491413e-13 0
-10.005298 -4.5046264e-13 0
-10.005298 3.3649873e-13 0
-10.005298 2.2441599e-13 0
-10.005298 2.2615121e-13 0
-10.005298 -1.7695805e-15 0
-10.005298 -6.8485755e-18 0
-10.005298 6.7651582e-17 0
-10.005298 -2.2276725e-13 0
-10.005298 -2.6344336e-13 0
-10.005298 5.1131453e-10 0
-10.005298 2.1566586e-07 0
-10.005298 -0.001208036 0