# vtk DataFile Version 4.0
hesp visualization file
ASCII
DATASET UNSTRUCTURED_GRID
POINTS 32 double
-0.44312777 0.46324168 4
-1.5389623 2.1636843 4
-1.5389623 3.448626 4
-0.44312777 5.1490686 4
-0.17302559 -1.8623868 4
0.66943489 1.7476396 4
0.66943489 3.8646706 4
-0.17302559 7.474697 4
5.0895847 -4.5652975 4
2.5731603 -0.42816456 4
2.5731603 6.0404748 4
5.0895847 10.177608 4
8.2533299 -4.8711194 4
9.1649529 1.2742236 4
9.1649529 4.3380867 4
8.2533299 10.48343 4
13.35898 -4.8711194 4
12.447357 1.2742236 4
12.447357 4.3380867 4
13.35898 10.48343 4
16.522726 -4.5652975 4
19.03915 -0.42816456 4
19.03915 6.0404748 4
16.522726 10.177608 4
21.785336 -1.8623868 4
20.942875 1.7476396 4
20.942875 3.8646706 4
21.785336 7.474697 4
22.055438 0.46324168 4
23.151273 2.1636843 4
23.151273 3.448626 4
22.055438 5.1490686 4
CELLS 0 0
CELL_TYPES 0
POINT_DATA 32
SCALARS m double
LOOKUP_TABLE default
1
1
1
1
1
1
1
1
1
1
1
1
1
1
1
1
1
1
1
1
1
1
1
1
1
1
1
1
1
1
1
1
VECTORS v double
-10.564612 -1.2218229 0
-11.937908 0.053903776 0
-11.937908 -0.053903776 0
-10.564612 1.2218229 0
-12.473834 -4.5602398 0
-9.758647 -0.23879632 0
-9.758647 0.23879632 0
-12.473834 4.5602398 0
-6.2406488 -8.727822 0
-8.3073296 -3.1851622 0
-8.3073296 3.1851622 0
-6.2406488 8.727822 0
-3.0723933 -7.7755711 0
-1.4041987 -0.91614755 0
-1.4041987 0.91614756 0
-3.0723933 7.7755711 0
3.0723933 -7.7755711 0
1.4041987 -0.91614756 0
1.4041987 0.91614756 0
3.0723933 7.7755711 0
6.2406488 -8.727822 0
8.3073296 -3.1851622 0
8.3073296 3.1851622 0
6.2406488 8.727822 0
12.473834 -4.5602398 0
9.758647 -0.23879632 0
9.758647 0.23879632 0
12.473834 4.5602398 0
10.564612 -1.2218229 0
11.937908 0.053903776 0
11.937908 -0.053903776 0
10.564612 1.2218229 0
