# vtk DataFile Version 4.0
hesp visualization file
ASCII
DATASET UNSTRUCTURED_GRID
POINTS 32 double
3.617708 0.99762711 4
3.0350415 2.2683868 4
3.0350415 3.3439234 4
3.617708 4.6146831 4
4.564513 -0.10709087 4
4.3060066 1.7917468 4
4.3060066 3.8205635 4
4.564513 5.7194011 4
7.4625942 -1.2489002 4
5.7204638 0.78244725 4
5.7204638 4.829863 4
7.4625942 6.8612104 4
9.4192621 -1.9160274 4
9.6998013 1.6237126 4
9.6998013 3.9885976 4
9.4192621 7.5283376 4
12.193048 -1.9160274 4
11.912509 1.6237126 4
11.912509 3.9885976 4
12.193048 7.5283376 4
14.149716 -1.2489002 4
15.891846 0.78244725 4
15.891846 4.829863 4
14.149716 6.8612104 4
17.047797 -0.10709087 4
17.306304 1.7917468 4
17.306304 3.8205635 4
17.047797 5.7194011 4
17.994602 0.99762711 4
18.577269 2.2683868 4
18.577269 3.3439234 4
17.994602 4.6146831 4
CELLS 0 0
CELL_TYPES 0
POINT_DATA 32
SCALARS m double
LOOKUP_TABLE default
1
1
1
1
1
1
1
1
1
1
1
1
1
1
1
1
1
1
1
1
1
1
1
1
1
1
1
1
1
1
1
1
VECTORS v double
-10.794081 -1.5693737 0
-12.271131 -0.21923358 0
-12.271131 0.21923358 0
-10.794081 1.5693737 0
-12.454704 -4.7863744 0
-9.3361891 -0.050528898 0
-9.3361891 0.050528898 0
-12.454704 4.7863744 0
-6.2548939 -8.7257716 0
-8.1883414 -3.1682503 0
-8.1883414 3.1682503 0
-6.2548939 8.7257716 0
-3.0579341 -7.7800241 0
-1.4154172 -0.92604645 0
-1.4154172 0.92604645 0
-3.0579341 7.7800241 0
3.0579341 -7.7800241 0
1.4154172 -0.92604645 0
1.4154172 0.92604645 0
3.0579341 7.7800241 0
6.2548939 -8.7257716 0
8.1883414 -3.1682503 0
8.1883414 3.1682503 0
6.2548939 8.7257716 0
12.454704 -4.7863744 0
9.3361891 -0.050528898 0
9.3361891 0.050528898 0
12.454704 4.7863744 0
10.794081 -1.5693737 0
12.271131 -0.21923358 0
12.271131 0.21923358 0
10.794081 1.5693737 0
