# vtk DataFile Version 4.0
hesp visualization file
ASCII
DATASET UNSTRUCTURED_GRID
POINTS 1250 double
33.770711 3.2720741 4
30.569697 2.8406918 4
32.875639 3.9510885 4
32.358855 4.4193559 4
30.411421 6.1026941 4
30.643766 6.8552039 4
30.633007 7.8582525 4
30.489035 8.9801042 4
30.488802 10.102159 4
30.488801 11.22462 4
30.488801 12.347566 4
30.488912 13.475239 4
30.574445 14.84787 4
30.488916 15.708644 4
30.488801 16.836931 4
30.488801 17.959393 4
30.488802 19.081855 4
30.489039 20.204404 4
30.54818 21.200032 4
30.330435 21.597186 4
31.347141 23.140711 4
32.410597 24.704518 4
32.868655 25.212252 4
30.559167 26.35129 4
33.770577 25.911892 4
30.58044 -5.4869704 4
33.779146 1.458002 4
30.129823 0.99483534 4
31.20074 4.3705915 4
32.430152 6.2836673 4
31.521138 7.2222327 4
31.755942 7.8499068 4
30.837181 8.9795377 4
30.837175 10.102157 4
30.837174 11.22462 4
30.837174 12.346691 4
30.83706 13.464511 4
30.728897 14.380485 4
30.837055 15.719618 4
30.837174 16.83693 4
30.837174 17.959393 4
30.837175 19.081856 4
30.837181 20.204077 4
31.757389 21.331906 4
31.469703 21.939466 4
31.538312 22.596148 4
31.201158 24.781555 4
30.127854 28.187044 4
33.779144 27.726013 4
30.58044 34.670984 4
31.471554 0.96934049 4
31.708295 3.2409907 4
31.675868 5.3455676 4
32.107354 5.5361546 4
30.201623 5.4736308 4
31.377978 7.7411743 4
32.100872 9.5611968 4
31.807844 8.9547323 4
31.814767 10.102134 4
31.814767 11.22462 4
31.814767 12.347327 4
31.814805 13.473192 4
31.923278 14.78807 4
31.814806 15.710735 4
31.814767 16.836931 4
31.814767 17.959393 4
31.814767 19.081879 4
31.803856 20.228411 4
32.110297 19.6224 4
30.702217 21.534025 4
30.225118 23.622648 4
33.19988 23.674637 4
31.569851 23.959726 4
31.706327 25.941425 4
31.471556 28.214675 4
31.675367 -1.3575441 4
30.455725 -2.0299272 4
32.409785 3.2422257 4
32.513322 4.0529236 4
31.0819 6.273247 4
31.130603 6.9421264 4
32.018593 7.8726784 4
32.055526 8.9785558 4
32.163399 10.10213 4
32.163396 11.22462 4
32.163396 12.346923 4
32.163355 13.466901 4
32.026896 14.481957 4
32.163354 15.717174 4
32.163396 16.83693 4
32.163396 17.959393 4
32.163399 19.081884 4
32.043022 20.206232 4
32.018643 21.311527 4
31.01674 21.993261 4
31.905651 23.694364 4
32.499033 25.143902 4
32.406735 25.936021 4
30.455723 31.21394 4
31.675367 30.541558 4
34.165655 4.306069 4
30.134635 3.4099586 4
30.748904 1.8903746 4
34.32874 4.9246691 4
33.33287 6.3390641 4
32.22227 6.7320493 4
33.141264 7.8407415 4
33.1409 8.9798431 4
33.140902 10.102157 4
33.140902 11.22462 4
33.140902 12.347151 4
33.140907 13.470942 4
33.206063 14.732286 4
33.140907 15.713037 4
33.140902 16.836931 4
33.140902 17.959393 4
33.140902 19.081856 4
33.1409 20.204241 4
33.141253 21.343059 4
32.223346 22.45244 4
32.436728 22.749367 4
34.030111 24.580109 4
30.749394 27.29112 4
30.132936 25.772637 4
34.164631 24.878577 4
30.951217 -0.72562601 4
32.75116 -0.86156196 4
35.141811 4.6046518 4
32.4184 5.6447876 4
33.937337 6.6153196 4
33.280784 7.0643515 4
33.481504 7.8631148 4
33.48996 8.9796315 4
33.490038 10.102159 4
33.490038 11.22462 4
33.490038 12.347046 4
33.490033 13.468705 4
33.416404 14.512233 4
33.490033 15.715329 4
33.490038 16.836931 4
33.490038 17.959393 4
33.490038 19.081855 4
33.489962 20.204344 4
33.481551 21.320964 4
33.314701 22.404893 4
33.971967 22.364089 4
32.409453 23.546474 4
35.150758 24.578059 4
32.751285 30.045609 4
30.951215 29.90964 4
31.925659 1.6548983 4
36.174082 2.6672486 4
31.804642 2.999312 4
32.61332 4.4854161 4
33.271581 5.6866039 4
34.467546 6.7321882 4
34.467267 7.8572453 4
34.467266 8.9797059 4
34.467266 10.102158 4
34.467266 11.22462 4
34.467266 12.347092 4
34.467266 13.469853 4
34.472924 14.641603 4
34.467266 15.714152 4
34.467266 16.836931 4
34.467266 17.959393 4
34.467266 19.081855 4
34.467266 20.204317 4
34.467267 21.326767 4
34.467522 22.453472 4
33.373833 23.446568 4
32.68936 24.693857 4
31.802714 26.182864 4
36.173491 26.516679 4
31.926117 27.53266 4
37.213171 -3.2150431 4
34.767293 4.2444486 4
35.619008 2.6113276 4
34.126135 5.6584117 4
35.720046 5.7732223 4
34.815018 6.7358975 4
34.817118 7.8572279 4
34.81712 8.9796921 4
34.817121 10.102158 4
34.817121 11.22462 4
34.817121 12.347078 4
34.81712 13.469388 4
34.810578 14.564621 4
34.817121 15.714629 4
34.817121 16.836931 4
34.817121 17.959393 4
34.817121 19.081855 4
34.81712 20.204317 4
34.817118 21.326786 4
34.814994 22.447455 4
35.735444 23.570742 4
34.026464 23.370388 4
35.617901 26.572164 4
34.766478 24.939651 4
37.213171 32.399056 4
32.935697 3.7137794 4
34.368109 2.0360316 4
36.275763 3.3159107 4
36.195293 4.94578 4
36.049122 5.8337909 4
35.787845 6.7366779 4
35.79382 7.8570792 4
35.793818 8.9796968 4
35.793818 10.102158 4
35.793818 11.22462 4
35.793818 12.347083 4
35.793818 13.469581 4
35.793975 14.600779 4
35.793818 15.714432 4
35.793818 16.836931 4
35.793818 17.959393 4
35.793818 19.081855 4
35.793818 20.204317 4
35.793821 21.326927 4
35.787904 22.447435 4
36.054457 23.33727 4
36.16184 24.21637 4
36.26508 25.878259 4
34.368154 27.147777 4
32.927098 25.451619 4
32.323933 1.1282272 4
35.105623 -0.65483959 4
35.177655 3.2062693 4
35.969628 4.6351727 4
35.958758 7.4784388 4
36.147158 6.7335138 4
36.144503 7.8570694 4
36.144504 8.979696 4
36.144504 10.102158 4
36.144504 11.22462 4
36.144504 12.347082 4
36.144504 13.469529 4
36.144316 14.587761 4
36.144504 15.714485 4
36.144504 16.836931 4
36.144504 17.959393 4
36.144504 19.081855 4
36.144504 20.204317 4
36.144504 21.326952 4
36.146937 22.450697 4
35.970096 21.705411 4
35.974198 24.564748 4
35.178541 25.976828 4
35.105624 29.838851 4
32.323932 28.055785 4
33.093886 0.87201718 4
36.518801 1.8807193 4
37.047634 4.5187259 4
36.163299 4.307426 4
36.603253 5.4814349 4
37.12044 6.7366115 4
37.120476 7.8572317 4
37.120477 8.9796963 4
37.120477 10.102158 4
37.120477 11.22462 4
37.120477 12.347083 4
37.120477 13.469546 4
37.120478 14.592847 4
37.120477 15.714467 4
37.120477 16.836931 4
37.120477 17.959393 4
37.120477 19.081855 4
37.120477 20.204317 4
37.120476 21.326782 4
37.120439 22.447333 4
36.613064 23.707035 4
36.164601 24.877728 4
37.048945 24.664648 4
36.518669 27.303398 4
33.093885 28.311997 4
34.565473 1.1234622 4
36.702279 1.4887256 4
37.207353 6.2510239 4
37.487486 4.0194601 4
37.320945 5.6203087 4
37.470744 6.7340179 4
37.471952 7.8572345 4
37.471954 8.9796964 4
37.471954 10.102158 4
37.471954 11.22462 4
37.471954 12.347083 4
37.471954 13.469544 4
37.471953 14.59165 4
37.471954 15.714469 4
37.471954 16.836931 4
37.471954 17.959393 4
37.471954 19.081855 4
37.471954 20.204317 4
37.471952 21.326779 4
37.470684 22.45002 4
37.321052 23.571827 4
37.485966 25.163306 4
37.204463 22.933118 4
36.702609 27.695333 4
34.565473 28.060551 4
35.692048 1.1263021 4
35.7411 2.0762699 4
37.989139 2.5356802 4
38.312592 4.8094827 4
38.447274 5.6038922 4
38.44716 6.7347672 4
38.44716 7.8572345 4
38.44716 8.9796964 4
38.44716 10.102158 4
38.44716 11.22462 4
38.44716 12.347083 4
38.44716 13.469545 4
38.44716 14.59204 4
38.44716 15.714469 4
38.44716 16.836931 4
38.44716 17.959393 4
38.44716 19.081855 4
38.44716 20.204317 4
38.44716 21.326779 4
38.44716 22.449246 4
38.447144 23.570534 4
38.315199 24.375664 4
37.987636 26.648633 4
35.741284 27.108091 4
35.692048 28.057711 4
36.814304 1.1262936 4
37.828706 2.0120816 4
37.733403 3.4416629 4
38.651209 4.4650816 4
38.798397 5.6159017 4
38.799217 6.7347739 4
38.79922 7.8572343 4
38.79922 8.9796964 4
38.79922 10.102158 4
38.79922 11.22462 4
38.79922 12.347083 4
38.79922 13.469545 4
38.79922 14.591994 4
38.79922 15.714469 4
38.79922 16.836931 4
38.79922 17.959393 4
38.79922 19.081855 4
38.79922 20.204317 4
38.79922 21.326779 4
38.799217 22.449239 4
38.79856 23.572107 4
38.651176 24.718038 4
37.733413 25.742199 4
37.829219 27.172331 4
36.814304 28.057719 4
37.936923 1.1259844 4
37.954351 2.2669044 4
38.874502 3.1370869 4
39.775593 4.5202917 4
39.773818 5.6119571 4
39.773818 6.7347724 4
39.773818 7.8572343 4
39.773818 8.9796964 4
39.773818 10.102158 4
39.773818 11.22462 4
39.773818 12.347083 4
39.773818 13.469545 4
39.773818 14.592007 4
39.773818 15.714469 4
39.773818 16.836931 4
39.773818 17.959393 4
39.773818 19.081855 4
39.773818 20.204317 4
39.773818 21.326779 4
39.773818 22.449241 4
39.773818 23.571725 4
39.775475 24.66477 4
38.874578 26.047372 4
37.95442 26.917028 4
37.936923 28.058029 4
39.059392 1.125969 4
39.059376 2.2449913 4
40.175695 3.8929344 4
40.123174 4.4764845 4
40.126085 5.6124376 4
40.12609 6.7347722 4
40.12609 7.8572343 4
40.12609 8.9796964 4
40.12609 10.102158 4
40.12609 11.22462 4
40.12609 12.347083 4
40.12609 13.469545 4
40.12609 14.592007 4
40.12609 15.714469 4
40.12609 16.836931 4
40.12609 17.959393 4
40.12609 19.081855 4
40.12609 20.204317 4
40.12609 21.326779 4
40.12609 22.449241 4
40.126085 23.5717 4
40.123323 24.707098 4
40.176432 25.290285 4
39.059376 26.939022 4
39.059392 28.058044 4
40.181855 1.1259684 4
40.181855 2.2449502 4
41.027996 3.0147643 4
41.100438 4.4914174 4
41.100434 5.6123141 4
41.100434 6.7347723 4
41.100434 7.8572343 4
41.100434 8.9796964 4
41.100434 10.102158 4
41.100434 11.22462 4
41.100434 12.347083 4
41.100434 13.469545 4
41.100434 14.592007 4
41.100434 15.714469 4
41.100434 16.836931 4
41.100434 17.959393 4
41.100434 19.081855 4
41.100434 20.204317 4
41.100434 21.326779 4
41.100434 22.449241 4
41.100434 23.571699 4
41.100438 24.692634 4
41.027176 26.169711 4
40.181855 26.939063 4
40.181855 28.058045 4
41.304317 1.1259683 4
41.304313 2.2449424 4
41.304052 3.3672476 4
41.451137 4.4892644 4
41.451151 5.6123088 4
41.451151 6.7347723 4
41.451151 7.8572343 4
41.451151 8.9796964 4
41.451151 10.102158 4
41.451151 11.22462 4
41.451151 12.347083 4
41.451151 13.469545 4
41.451151 14.592007 4
41.451151 15.714469 4
41.451151 16.836931 4
41.451151 17.959393 4
41.451151 19.081855 4
41.451151 20.204317 4
41.451151 21.326779 4
41.451151 22.449241 4
41.451151 23.571705 4
41.451137 24.694735 4
41.304054 25.816764 4
41.304313 26.939071 4
41.304317 28.058045 4
42.426779 1.1259682 4
42.426779 2.2449365 4
42.426779 3.3673861 4
42.426778 4.4898482 4
[...]
POINT_DATA 1250
SCALARS m double
LOOKUP_TABLE default
1
1
1
1
1
1
1
1
1
1
1
1
1
1
1
1
1
1
1
1
1
1
1
1
1
1
1
1
1
1
1
1
1
1
1
1
1
1
1
1
1
1
1
1
1
1
1
1
1
1
1
1
1
1
1
1
1
1
1
1
1
1
1
1
1
1
1
1
1
1
1
1
1
1
1
1
1
1
1
1
1
1
1
1
1
1
1
1
1
1
1
1
1
1
1
1
1
1
1
1
1
1
1
1
1
1
1
1
1
1
1
1
1
1
1
1
1
1
1
1
1
1
1
1
1
1
1
1
1
1
1
1
1
1
1
1
1
1
1
1
1
1
1
1
1
1
1
1
1
1
1
1
1
1
1
1
1
1
1
1
1
1
1
1
1
1
1
1
1
1
1
1
1
1
1
1
1
1
1
1
1
1
1
1
1
1
1
1
1
1
1
1
1
1
1
1
1
1
1
1
1
1
1
1
1
1
1
1
1
1
1
1
1
1
1
1
1
1
1
1
1
1
1
1
1
1
1
1
1
1
1
1
1
1
1
1
1
1
1
1
1
1
1
1
1
1
1
1
1
1
1
1
1
1
1
1
1
1
1
1
1
1
1
1
1
1
1
1
1
1
1
1
1
1
1
1
1
1
1
1
1
1
1
1
1
1
1
1
1
1
1
1
1
1
1
1
1
1
1
1
1
1
1
1
1
1
1
1
1
1
1
1
1
1
1
1
1
1
1
1
1
1
1
1
1
1
1
1
1
1
1
1
1
1
1
1
1
1
1
1
1
1
1
1
1
1
1
1
1
1
1
1
1
1
1
1
1
1
1
1
1
1
1
1
1
1
1
1
1
1
1
1
1
1
1
1
1
1
1
1
1
1
1
1
1
1
1
1
1
1
1
1
1
1
1
1
1
1
1
1
1
1
1
1
1
1
1
1
1
1
1
1
1
1
1
1
1
1
1
1
1
1
1
1
1
1
1
1
1
1
1
1
1
1
1
1
1
1
1
1
1
1
1
1
1
1
1
1
1
1
1
1
1
1
1
1
1
1
1
1
1
1
1
1
1
1
1
1
1
1
1
1
1
1
1
1
1
1
1
1
1
1
1
1
1
1
1
1
1
1
1
1
1
1
1
1
1
1
1
1
1
1
1
1
1
1
1
1
1
1
1
1
1
1
1
1
1
1
1
1
1
1
1
1
1
1
1
1
1
1
1
1
1
1
1
1
1
1
1
1
1
1
1
1
1
1
1
1
1
1
1
1
1
1
1
1
1
1
1
1
1
1
1
1
1
1
1
1
1
1
1
1
1
1
1
1
1
1
1
1
1
1
1
1
1
1
1
1
1
1
1
1
1
1
1
1
1
1
1
1
1
1
1
1
1
1
1
1
1
1
1
1
1
1
1
1
1
1
1
1
1
1
1
1
1
1
1
1
1
1
1
1
1
1
1
1
1
1
1
1
1
1
1
1
1
1
1
1
1
1
1
1
1
1
1
1
1
1
1
1
1
1
1
1
1
1
1
1
1
1
1
1
1
1
1
1
1
1
1
1
1
1
1
1
1
1
1
1
1
1
1
1
1
1
1
1
1
1
1
1
1
1
1
1
1
1
1
1
1
1
1
1
1
1
1
1
1
1
1
1
1
1
1
1
1
1
1
1
1
1
1
1
1
1
1
1
1
1
1
1
1
1
1
1
1
1
1
1
1
1
1
1
1
1
1
1
1
1
1
1
1
1
1
1
1
1
1
1
1
1
1
1
1
1
1
1
1
1
1
1
1
1
1
1
1
1
1
1
1
1
1
1
1
1
1
1
1
1
1
1
1
1
1
1
1
1
1
1
1
1
1
1
1
1
1
1
1
1
1
1
1
1
1
1
1
1
1
1
1
1
1
1
1
1
1
1
1
1
1
1
1
1
1
1
1
1
1
1
1
1
1
1
1
1
1
1
1
1
1
1
1
1
1
1
1
1
1
1
1
1
1
1
1
1
1
1
1
1
1
1
1
1
1
1
1
1
1
1
1
1
1
1
1
1
1
1
1
1
1
1
1
1
1
1
1
1
1
1
1
1
1
1
1
1
1
1
1
1
1
1
1
1
1
1
1
1
1
1
1
1
1
1
1
1
1
1
1
1
1
1
1
1
1
1
1
1
1
1
1
1
1
1
1
1
1
1
1
1
1
1
1
1
1
1
1
1
1
1
1
1
1
1
1
1
1
1
1
1
1
1
1
1
1
1
1
1
1
1
1
1
1
1
1
1
1
1
1
1
1
1
1
1
1
1
1
1
1
1
1
1
1
1
1
1
1
1
1
1
1
1
1
1
1
1
1
1
1
1
1
1
1
1
1
1
1
1
1
1
1
1
1
1
1
1
1
1
1
1
1
1
1
1
1
1
1
1
1
1
1
1
1
1
1
1
1
1
1
1
1
1
1
1
1
1
1
1
1
1
1
1
1
1
1
1
1
1
1
1
1
1
1
1
1
1
1
1
1
1
1
1
1
1
1
1
1
1
1
1
1
1
1
1
1
1
1
1
1
1
1
1
1
1
1
1
1
1
1
1
1
1
1
1
1
1
1
1
1
1
1
1
1
1
1
1
1
1
1
1
1
1
1
1
1
1
1
1
1
1
1
1
1
1
1
1
1
1
1
1
1
1
1
1
1
1
1
1
1
1
1
1
1
1
1
1
1
1
1
1
1
1
1
1
1
1
1
1
1
1
1
1
1
1
1
1
1
1
1
1
1
1
1
1
1
1
1
1
1
1
1
1
1
1
1
1
1
1
1
1
1
1
1
1
1
1
1
1
1
1
1
1
1
1
1
1
1
1
1
1
1
1
VECTORS v double
3.5227045 7.5372214 0
-6.3418316 -8.3115639 0
8.9473046 9.1025116 0
8.2837847 -1.3132804 0
-3.402478 -4.5647859 0
10.446771 1.2864213 0
9.9957646 0.0098311082 0
-10.04265 0.026561301 0
-10.047421 4.7431607e-05 0
-10.04746 -1.9858465e-06 0
-10.047392 0.038122678 0
-10.037045 0.46338186 0
8.9739066 4.4186737 0
-10.036661 -0.47423698 0
-10.047461 4.8809382e-05 0
-10.04746 -9.5278583e-07 0
-10.047421 -5.0380514e-05 0
-10.042566 0.012546834 0
1.0204128 -13.574161 0
-2.316433 -9.0760917 0
5.9140844 6.208473 0
-9.9634606 0.90519075 0
11.547772 -2.6872311 0
-6.4027589 8.4130699 0
3.5221146 -7.5374608 0
-2.631189 -13.726701 0
8.1230615 -2.6300678 0
-4.0305641 -9.7910899 0
10.107496 1.3757881 0
12.827561 -3.1701543 0
-0.31051102 -5.7885106 0
9.3165414 -0.28942756 0
10.045477 -0.021601084 0
10.045425 -9.1650578e-05 0
10.045408 -4.8751133e-07 0
10.045338 -0.036435707 0
10.034995 -0.45073032 0
-9.3747701 -3.5898148 0
10.034418 0.46106408 0
10.045408 -4.9074513e-05 0
10.045408 3.136898e-06 0
10.045425 9.6596507e-05 0
10.045481 -0.015552654 0
9.3906089 0.16642595 0
-2.6573441 4.8285497 0
-0.087819567 -1.8016651 0
10.110072 -1.6552142 0
-3.5561649 9.78162 0
8.1230533 2.6300676 0
-2.6311891 13.726701 0
9.3115337 0.075616995 0
7.1985019 6.5239702 0
1.872468 7.1183431 0
-8.0460329 -0.91842472 0
8.5467562 -5.4809146 0
4.1894 11.397606 0
5.9779366 19.337061 0
-7.7677341 -1.8937513 0
-10.049012 -0.0035657104 0
-10.049739 -7.3628017e-06 0
-10.049724 0.018020066 0
-10.046172 0.27723151 0
9.3985963 3.4396768 0
-10.046059 -0.28396762 0
-10.049739 2.8436809e-05 0
-10.049739 6.2207639e-06 0
-10.049009 0.0034799126 0
-5.8942157 1.7062148 0
6.4430207 -19.341841 0
5.0802894 3.3172213 0
10.016408 0.26769682 0
7.3740813 -0.7385383 0
0.73744903 -5.8421536 0
7.6236408 -5.9207935 0
9.311594 -0.075567321 0
-0.49677596 -3.6838479 0
-6.8354855 -10.619386 0
-4.7634909 -5.4008709 0
5.8697411 -1.2105195 0
-10.200526 5.0618902 0
-9.4950781 3.506206 0
-9.4197443 0.30053425 0
3.6698164 0.90119809 0
10.044275 -0.0055040189 0
10.044353 -5.0708262e-06 0
10.044338 -0.016438169 0
10.040741 -0.25854186 0
-9.8950874 -1.837529 0
10.040541 0.26450345 0
10.044353 -2.6574979e-05 0
10.044353 5.9726822e-06 0
10.04433 0.0055702435 0
1.2584667 -0.72118106 0
-9.3583834 -0.29735802 0
-12.067894 -11.45332 0
3.3058065 10.133684 0
5.8618717 1.8571858 0
-4.7806895 5.3683967 0
-6.8354914 10.619384 0
-0.49677438 3.6838492 0
-7.2718307 9.606191 0
7.7078139 4.3323081 0
-8.757632 -4.9232577 0
9.1711126 -5.0939049 0
6.3433829 8.958188 0
-10.021677 -0.11679029 0
-10.002953 -1.0844696 0
-10.051474 0.0098221789 0
-10.051474 -9.2914898e-05 0
-10.051444 -2.6834514e-06 0
-10.051442 0.0047670321 0
-10.050984 0.10030039 0
-2.9399712 10.130927 0
-10.050991 -0.10283167 0
-10.051443 9.8670467e-06 0
-10.051444 2.4787725e-06 0
-10.051475 9.2677897e-05 0
-10.051475 -0.0049030623 0
-10.004187 1.0701088 0
-9.9445128 0.14165427 0
-6.7357195 -8.0247527 0
6.4368174 8.2093993 0
-8.7570586 4.899385 0
7.5828601 -4.3193043 0
-7.3043678 -9.6266982 0
-1.1250647 -6.3258901 0
-1.9931603 -10.927097 0
6.4582382 9.1932033 0
-6.857594 10.807958 0
4.2171194 2.8502659 0
-11.715607 8.5570437 0
9.9063146 0.88242758 0
10.043103 -0.0082285714 0
10.044584 4.3969674e-05 0
10.044625 3.4355193e-07 0
10.044624 -0.004168985 0
10.044163 -0.089959408 0
2.7853135 -9.0051359 0
10.044135 0.092051669 0
10.044626 -8.612236e-06 0
10.044625 -1.9947268e-07 0
10.044584 -4.3282442e-05 0
10.043135 0.0039260743 0
9.9079267 -0.8720757 0
-10.881245 -1.3123784 0
3.9495352 -9.4706492 0
-7.5822765 -10.752979 0
6.646553 -9.1037691 0
-1.9925754 10.927263 0
-1.1250711 6.3258934 0
-0.1576412 -4.3435223 0
1.4240233 3.4230737 0
-6.8676771 -5.4700175 0
-9.5507926 0.22693477 0
-14.642964 2.5339883 0
-10.050323 -0.17806919 0
-10.052068 0.00073468815 0
-10.052127 0.00063499194 0
-10.052128 -3.4768118e-08 0
-10.052128 -9.7289273e-09 0
-10.052128 0.00064718949 0
-10.052103 0.021145084 0
-9.507147 3.4855746 0
-10.052113 -0.021704636 0
-10.052128 2.0946522e-06 0
-10.052128 -4.2392044e-09 0
-10.052128 2.0234582e-08 0
-10.052126 2.6188476e-05 0
-10.052078 -0.00081857032 0
-10.052384 0.28612776 0
-13.264083 -2.5949333 0
10.359313 -0.61858495 0
-7.3597936 4.7929807 0
1.4176716 -3.4285091 0
-0.15422259 4.3705425 0
4.8370531 -9.9977527 0
-5.8592674 -7.3476553 0
1.7220668 -3.3934046 0
-3.6071124 4.8093877 0
9.893486 1.5984118 0
9.9891755 0.14379656 0
10.045958 -0.00073612431 0
10.045968 -0.00054150074 0
10.045975 2.9017555e-09 0
10.045975 -4.5172848e-10 0
10.045975 -0.00054559764 0
10.045956 -0.018320161 0
9.485678 -3.0715897 0
10.045952 0.018744292 0
10.045975 -1.6650673e-06 0
10.045975 4.3033709e-09 0
10.045975 1.9774395e-09 0
10.045969 -1.5713486e-05 0
10.045963 0.00083433928 0
9.976034 -0.23271606 0
10.028541 -0.02494561 0
-4.8568828 -6.9181759 0
1.7169594 3.3909115 0
-5.9827078 7.2669158 0
4.8370532 9.9977527 0
-1.7571644 -4.1156839 0
-9.8620382 -1.5723957 0
6.3480595 -7.0678155 0
8.580585 5.0251912 0
-8.2537199 5.5307143 0
-10.225709 0.17975148 0
-10.045728 -0.030682875 0
-10.051794 2.3435078e-05 0
-10.051793 2.1764982e-10 0
-10.051793 3.7895234e-10 0
-10.051793 3.4975829e-05 0
-10.051792 0.0023716217 0
-10.036863 0.59308706 0
-10.051794 -0.0024380434 0
-10.051793 3.2194746e-07 0
-10.051793 -4.5059462e-10 0
-10.051793 -4.9634451e-10 0
-10.051793 1.2168439e-05 0
-10.045467 0.029051925 0
-10.222088 -0.17947798 0
-8.1258824 -5.7056919 0
7.3353177 -5.778481 0
6.2792567 7.1327181 0
-9.8616871 1.5709937 0
-4.8697379 -3.3065996 0
-9.9962183 0.042045223 0
-3.9332467 -8.2576647 0
2.677346 -3.3730641 0
0.59964128 -6.20066 0
-1.4747673 17.641463 0
10.138939 -0.073884175 0
10.041671 -0.030373022 0
10.047794 -4.2674138e-05 0
10.047793 1.9832612e-10 0
10.047793 -9.1557471e-10 0
10.047793 -2.8598329e-05 0
10.047793 -0.0019945836 0
10.03232 -0.50847603 0
10.047793 0.0020380042 0
10.047793 -2.2635107e-07 0
10.047793 4.6246484e-10 0
10.047793 -4.9346061e-10 0
10.047794 1.3673657e-05 0
10.041867 0.032118373 0
10.132039 0.080885405 0
-1.3735107 -17.635108 0
1.5729728 6.8807034 0
2.6881219 3.3638613 0
-3.9332444 8.257659 0
-9.9962832 -0.042107852 0
-11.495481 -1.068226 0
-9.9918161 -1.0858513 0
-4.8267953 8.5928728 0
-8.2233182 -1.5514222 0
3.9442586 -4.4900359 0
-10.050618 0.10983974 0
-10.050803 -0.00017789566 0
-10.050767 -7.0816438e-06 0
-10.050766 1.6984145e-10 0
-10.050766 3.7580838e-12 0
-10.050766 5.113306e-08 0
-10.050766 0.00010863079 0
-10.05064 0.055019325 0
-10.050766 -0.00011214637 0
-10.050766 4.7831748e-08 0
-10.050766 -6.8768719e-12 0
-10.050766 -1.872192e-10 0
-10.050767 7.1559148e-06 0
-10.050805 0.00018299213 0
-10.050646 -0.11424477 0
3.9883311 4.623403 0
-8.213631 1.5599711 0
-4.8151744 -8.5975057 0
-9.9968559 1.0925023 0
-11.495486 1.0682301 0
-10.022584 -0.0073921455 0
4.817044 -9.8610189 0
-0.7553063 15.775894 0
-7.2048011 -7.0712332 0
-10.120279 0.17668388 0
10.026652 -0.10660553 0
10.04938 7.9508379e-05 0
10.049464 2.6147522e-06 0
10.049466 7.469161e-13 0
10.049466 -8.0941927e-12 0
10.049466 -2.4784969e-08 0
10.049466 -8.930018e-05 0
10.049335 -0.045948746 0
10.049466 9.0809347e-05 0
10.049466 -1.8961762e-08 0
10.049466 7.8075235e-12 0
10.049466 7.6107174e-12 0
10.049464 -2.5715628e-06 0
10.049377 -8.1300306e-05 0
10.025548 0.11008458 0
-10.115484 -0.041358212 0
-7.2327308 7.0488037 0
-0.78562183 -15.778521 0
4.823358 9.8534756 0
-10.022584 0.0073937739 0
-9.9979523 0.0144448 0
-8.9734683 -3.473694 0
1.3839274 -6.0593665 0
4.0384128 5.6522349 0
-10.037408 -0.55247785 0
-10.049515 -0.00032300664 0
-10.049499 9.8658996e-06 0
-10.049498 4.6727619e-10 0
-10.049498 2.3770839e-12 0
-10.049498 -1.2059682e-13 0
-10.049498 6.7062833e-10 0
-10.049498 -2.5771558e-08 0
-10.049498 0.0021527206 0
-10.049498 -2.940585e-08 0
-10.049498 5.7533233e-10 0
-10.049498 3.888691e-13 0
-10.049498 -2.0320429e-12 0
-10.049498 -4.5697801e-10 0
-10.049499 -1.0327913e-05 0
-10.049516 0.0003334864 0
-10.049805 -0.073193323 0
4.0765133 -5.6305199 0
1.3702625 6.0365966 0
-8.9693536 3.4812974 0
-9.9979515 -0.014448338 0
-10.021149 0.055649172 0
-1.1384884 -6.4532102 0
-10.004251 0.47727523 0
-10.016487 -0.39278442 0
10.027541 0.461282 0
10.050549 0.00024801246 0
10.050612 -9.958384e-06 0
10.050616 3.0628007e-12 0
10.050616 -4.226089e-13 0
10.050616 -8.3757282e-14 0
10.050616 -6.0867243e-10 0
10.050616 -1.124955e-08 0
10.050616 -0.0017561621 0
10.050616 -8.1716761e-09 0
10.050616 -5.1619596e-10 0
10.050616 1.557396e-13 0
10.050616 2.5313892e-14 0
10.050616 -2.5166169e-11 0
10.050612 1.0348747e-05 0
10.050549 -0.00024932014 0
10.040523 0.059504365 0
-10.017702 0.37772803 0
-10.004135 -0.47828442 0
-1.1300653 6.4582607 0
-10.021169 -0.05575302 0
-10.000294 0.0087248208 0
-6.9244304 3.3134589 0
-9.8121154 -2.1434877 0
-9.8780097 2.0086346 0
-10.048378 -0.022374196 0
-10.048394 9.0882077e-06 0
-10.048394 -3.8420461e-08 0
-10.048394 7.100687e-12 0
-10.048394 6.2919016e-14 0
-10.048394 -2.4911403e-13 0
-10.048394 2.847203e-12 0
-10.048394 -1.047803e-09 0
-10.048394 5.1467002e-09 0
-10.048394 -1.2395521e-09 0
-10.048394 3.8274714e-12 0
-10.048394 4.9376768e-13 0
-10.048394 -6.3572147e-14 0
-10.048394 -6.4411437e-12 0
-10.048394 1.2039608e-10 0
-10.048394 -8.9120899e-06 0
-10.048398 0.0012420542 0
-9.8894056 -1.9401062 0
-9.8113741 2.1476354 0
-6.9274291 -3.2900164 0
-10.000294 -0.0087270471 0
-10.000022 0.0079290369 0
-10.000497 0.0012205576 0
-6.4272734 8.5458545 0
9.8704245 -1.6947109 0
10.051053 0.018098932 0
10.051115 -7.1571437e-06 0
10.051116 1.13133e-08 0
10.051116 -1.446262e-12 0
10.051116 6.1354606e-15 0
10.051116 -2.088965e-13 0
10.051116 -4.0135403e-13 0
10.051116 7.1715221e-10 0
10.051116 -4.0316335e-09 0
10.051116 8.745794e-10 0
10.051116 4.1520335e-13 0
10.051116 4.1318934e-13 0
10.051116 -5.02058e-15 0
10.051116 3.4168495e-13 0
10.051116 -4.8854589e-10 0
10.051115 7.3293924e-06 0
10.051074 -0.00085576912 0
9.8823494 1.6377929 0
-6.4137541 -8.5587254 0
-10.000497 -0.0012236972 0
-10.000022 -0.0079290572 0
-10 0.0079111964 0
-9.9998286 0.000299876 0
6.2527484 -6.7697257 0
-10.047669 0.10051293 0
-10.048039 0.0002489918 0
-10.048038 1.3444405e-07 0
-10.048038 2.1142951e-11 0
-10.048038 -4.7736032e-14 0
-10.048038 5.4902959e-15 0
-10.048038 -4.9918591e-14 0
-10.048038 -9.0215343e-14 0
-10.048038 -1.3156015e-13 0
-10.048038 -1.0807886e-12 0
-10.048038 1.3459057e-13 0
-10.048038 9.0523149e-14 0
-10.048038 9.5241043e-14 0
-10.048038 -4.916962e-15 0
-10.048038 -4.5562108e-14 0
-10.048038 -3.467732e-11 0
-10.048038 -1.1635058e-07 0
-10.048039 -0.00025898335 0
-10.047689 -0.098061235 0
6.2381599 6.7794369 0
-9.999828 -0.00030097709 0
-10 -0.0079112023 0
-10.000001 0.007910127 0
-10.000309 0.00062474102 0
-10.029607 -0.022816941 0
10.047812 -0.081873059 0
10.048469 -0.00020527882 0
10.048471 -7.2768747e-08 0
10.048471 -5.6578519e-11 0
10.048471 -5.4406124e-14 0
10.048471 5.3802469e-15 0
10.048471 -2.919662e-14 0
10.048471 -4.9159275e-14 0
10.048471 -6.9310789e-14 0
10.048471 -1.0269875e-13 0
10.048471 7.3380389e-14 0
10.048471 4.9246651e-14 0
10.048471 5.3917243e-14 0
10.048471 -4.795453e-15 0
10.048471 2.4767836e-15 0
10.048471 4.0276087e-11 0
10.048471 5.94559e-08 0
10.048469 0.00021340491 0
10.047832 0.079873712 0
-10.029335 0.02257456 0
-10.00031 -0.00062472031 0
-10.000001 -0.007910129 0
-10 0.0079060932 0
-10.000008 5.8080978e-06 0
-10.000027 2.9440216e-06 0
-10.000093 3.9537999e-06 0
-10.000097 1.7901343e-07 0
-10.000097 1.503852e-10 0
-10.000097 4.2523419e-13 0
-10.000097 -2.0649642e-15 0
-10.000097 5.2803559e-15 0
-10.000097 -4.5451758e-15 0
-10.000097 -7.6124909e-17 0
-10.000097 4.4032166e-15 0
-10.000097 -4.5208598e-15 0
-10.000097 -1.8965063e-16 0
-10.000097 9.035429e-17 0
-10.000097 4.6993918e-15 0
-10.000097 -4.7058634e-15 0
-10.000097 -1.7830204e-16 0
-10.000097 -4.4101823e-13 0
-10.000097 -1.4633784e-10 0
-10.000097 -1.7908001e-07 0
-10.000093 -3.9579474e-06 0
-10.000027 -2.9534222e-06 0
-10.000008 -5.7984908e-06 0
-10 -0.007906093 0
-10 0.0079058216 0
-10 1.2043544e-06 0
-10 -3.4282577e-07 0
-10.000001 1.166414e-07 0
-10.000001 3.097943e-11 0
-10.000001 1.1820442e-13 0
-10.000001 5.0868534e-17 0
-10.000001 -2.2467719e-15 0
-10.000001 5.2785252e-15 0
-10.000001 -4.5442733e-15 0
-10.000001 -7.7493663e-17 0
-10.000001 4.3997709e-15 0
-10.000001 -4.5201179e-15 0
-10.000001 -1.884662e-16 0
-10.000001 9.1890082e-17 0
-10.000001 4.6988774e-15 0
-10.000001 -4.704511e-15 0
-10.000001 -1.61708e-17 0
-10.000001 1.1502608e-16 0
-10.000001 -1.1792107e-13 0
-10.000001 -3.036262e-11 0
-10.000001 -1.1664e-07 0
-10 3.428261e-07 0
-10 -1.2043544e-06 0
-10 -0.0079058216 0
-10 0.0079058216 0
-10 1.2043567e-06 0
-10 -4.5933041e-07 0
-10 7.5066487e-11 0
-10 5.1985981e-12 0
-10 -2.228575e-16 0
-10 -2.5844043e-17 0
-10 -2.246841e-15 0
-10 5.279015e-15 0
-10 -4.5441569e-15 0
-10 -7.6852784e-17 0
-10 4.4007691e-15 0
-10 -4.5195572e-15 0
-10 -1.8844536e-16 0
-10 9.1541937e-17 0
-10 4.698544e-15 0
-10 -4.7047482e-15 0
-10 -1.6246427e-17 0
-10 1.9451458e-16 0
-10 2.7146371e-15 0
-10 -5.1983223e-12 0
-10 -7.5068702e-11 0
-10 4.593304e-07 0
-10 -1.2043567e-06 0
-10 -0.0079058216 0
-10 0.0079058215 0
-10 1.2043556e-06 0
-10 -4.5933039e-07 0
-10 7.5065401e-11 0
-10 5.2031581e-12 0
-10 -2.221972e-16 0
-10 -2.5812414e-17 0
-10 -2.2461648e-15 0
-10 5.2785238e-15 0
-10 -4.5439063e-15 0
-10 -7.6903405e-17 0
-10 4.4006033e-15 0
-10 -4.5191914e-15 0
-10 -1.8930593e-16 0
-10 9.1566258e-17 0
-10 4.6986613e-15 0
-10 -4.7051695e-15 0
-10 -1.6248231e-17 0
-10 1.9497832e-16 0
-10 2.714037e-15 0
-10 -5.2028984e-12 0
-10 -7.5067565e-11 0
-10 4.5933038e-07 0
-10 -1.2043556e-06 0
-10 -0.0079058215 0
-9.9999996 0.0079058293 0
-9.9999995 1.203968e-06 0
-9.9999995 -4.5935076e-07 0
-9.9999995 7.511654e-11 0
-9.9999995 5.2033071e-12 0
-9.9999995 -2.2269762e-16 0
-9.9999995 -2.5642027e-17 0
-9.9999995 -2.2450969e-15 0
-9.9999995 5.2786123e-15 0
-9.9999995 -4.5435336e-15 0
-9.9999995 -7.6050591e-17 0
-9.9999995 4.401792e-15 0
-9.9999995 -4.5170089e-15 0
-9.9999995 -1.9079937e-16 0
-9.9999995 9.065811e-17 0
-9.9999995 4.6977164e-15 0
-9.9999995 -4.7050899e-15 0
-9.9999995 -1.6248087e-17 0
-9.9999995 1.9487633e-16 0
-9.9999995 2.7148189e-15 0
-9.9999995 -5.2030636e-12 0
-9.9999995 -7.5119221e-11 0
-9.9999995 4.5935076e-07 0
-9.9999995 -1.203968e-06 0
-9.9999996 -0.0079058293 0
-10.000005 0.0079072431 0
-10.000001 1.3664416e-06 0
-10.000001 -4.6003693e-07 0
-10.000001 7.3314323e-11 0
-10.000001 5.2115942e-12 0
-10.000001 -2.1882932e-16 0
-10.000001 -2.5912266e-17 0
-10.000001 -2.2470143e-15 0
-10.000001 5.2794842e-15 0
-10.000001 -4.5447005e-15 0
-10.000001 -7.7194695e-17 0
-10.000001 4.4007518e-15 0
-10.000001 -4.5208178e-15 0
-10.000001 -1.8843155e-16 0
-10.000001 9.1875925e-17 0
-10.000001 4.6997038e-15 0
-10.000001 -4.7060303e-15 0
-10.000001 -1.6248572e-17 0
-10.000001 1.9522215e-16 0
-10.000001 2.7028544e-15 0
-10.000001 -5.2113566e-12 0
-10.000001 -7.3316688e-11 0
-10.000001 4.6003693e-07 0
-10.000001 -1.3664416e-06 0
-10.000005 -0.0079072431 0
-10.00747 0.0074701955 0
-10.007907 5.3712349e-06 0
-10.007906 -4.4967158e-07 0
-10.007906 -1.1472629e-11 0
-10.007906 5.1389306e-12 0
-10.007906 3.5444422e-16 0
-10.007906 -2.6072206e-17 0
-10.007906 -2.1937367e-15 0
-10.007906 5.1451538e-15 0
-10.007906 -4.430553e-15 0
-10.007906 -7.8607938e-17 0
-10.007906 4.2845754e-15 0
-10.007906 -4.4136421e-15 0
-10.007906 -1.7923643e-16 0
-10.007906 9.3772754e-17 0
-10.007906 4.5836414e-15 0
-10.007906 -4.5874197e-15 0
-10.007906 -1.6248662e-17 0
-10.007906 1.9150488e-16 0
-10.007906 2.0956398e-15 0
-10.007906 -5.1379303e-12 0
-10.007906 1.1467816e-11 0
-10.007906 4.4967158e-07 0
-10.007907 -5.3712349e-06 0
-10.00747 -0.0074701955 0
-3.5226968 7.5372685 0
6.4882443 -7.9038924 0
-11.135349 0.97826679 0
9.9483987 2.1811776 0
-8.4607539 1.6724329 0
-5.8254627 1.4675517 0
-9.9951154 0.0077194964 0
10.042208 -0.060081821 0
10.04742 5.6088797e-05 0
10.04746 4.4176158e-06 0
10.047352 -0.046928036 0
10.036112 -0.48293995 0
-8.9729593 -4.4258991 0
10.035499 0.49385771 0
10.047462 -5.2481234e-05 0
10.04746 -6.3926752e-07 0
10.047421 -5.0389612e-05 0
10.042565 0.012547137 0
-1.0860949 -13.588276 0
2.3199841 -9.0760555 0
-5.9111698 6.2156353 0
9.5143951 1.5751876 0
-10.683989 -5.7777966 0
6.3767798 8.5567782 0
-3.5220812 -7.5374736 0
2.631189 -13.726701 0
-8.1230615 -2.630068 0
4.0299696 -9.792643 0
-10.111034 1.6825705 0
-5.0841166 -6.5647331 0
3.5272014 -7.0932752 0
-9.158513 0.76619274 0
-10.045342 0.063141047 0
-10.045425 -0.00010186398 0
-10.045408 -6.5414304e-06 0
-10.045298 0.046766815 0
-10.033881 0.47523379 0
9.3379432 3.6817485 0
-10.033464 -0.48569739 0
-10.045407 4.8739975e-05 0
-10.045408 2.8259904e-06 0
-10.045425 9.6612964e-05 0
-10.045481 -0.015553395 0
-9.3906152 0.16635066 0
2.646098 4.8231587 0
-0.37787383 -2.1550567 0
-10.107906 -1.411951 0
3.5562757 9.7811818 0
-8.1230528 2.6300685 0
2.6311891 13.726701 0
-9.3115314 0.075626232 0
-3.8288933 9.4474357 0
0.15598181 5.3320212 0
9.2300421 8.6327498 0
-8.5426249 4.9732228 0
6.2973137 2.1859769 0
-6.9069752 19.330326 0
3.1147955 -1.388202 0
10.049013 -0.00337 0
10.049739 -3.7679337e-06 0
10.04968 -0.035561459 0
10.045046 -0.31844408 0
-9.3773806 -3.4990258 0
10.044787 0.32534382 0
10.04974 -3.2845668e-05 0
10.049739 6.4147342e-06 0
10.049009 0.0034791612 0
5.8738447 1.7038674 0
-6.4470322 -19.341794 0
-5.0123775 3.3348859 0
-10.016383 0.26592213 0
-7.3252536 -0.67799534 0
-0.77432131 -5.731957 0
-8.5393435 -4.543468 0
-9.3115939 -0.075557512 0
0.49677596 -3.6838479 0