# vtk DataFile Version 4.0
hesp visualization file
ASCII
DATASET UNSTRUCTURED_GRID
POINTS 32 double
6.1621159 1.0933281 4
6.0859456 2.2313949 4
6.0859456 3.3809154 4
6.1621159 4.5189821 4
7.4071465 0.80954023 4
7.2152491 2.0935226 4
7.2152491 3.5187877 4
7.4071465 4.80277 4
9.0952653 1.0203485 4
8.1723584 2.0060659 4
8.1723584 3.6062444 4
9.0952653 4.5919617 4
10.210083 0.11381846 4
10.07487 1.8654965 4
10.07487 3.7468137 4
10.210083 5.4984918 4
11.402227 0.11381846 4
11.53744 1.8654965 4
11.53744 3.7468137 4
11.402227 5.4984918 4
12.517045 1.0203485 4
13.439952 2.0060659 4
13.439952 3.6062444 4
12.517045 4.5919617 4
14.205164 0.80954023 4
14.397061 2.0935226 4
14.397061 3.5187877 4
14.205164 4.80277 4
15.450194 1.0933281 4
15.526365 2.2313949 4
15.526365 3.3809154 4
15.450194 4.5189821 4
CELLS 0 0
CELL_TYPES 0
POINT_DATA 32
SCALARS m double
LOOKUP_TABLE default
1
1
1
1
1
1
1
1
1
1
1
1
1
1
1
1
1
1
1
1
1
1
1
1
1
1
1
1
1
1
1
1
VECTORS v double
-9.8291158 -0.26143481 0
-10.450912 -0.091594896 0
-10.450912 0.091594896 0
-9.8291158 0.26143481 0
-9.2432129 -2.2127621 0
-11.797046 -1.1653967 0
-11.797046 1.1653967 0
-9.2432129 2.2127621 0
-6.3213637 -8.7801593 0
-11.860865 -6.1559309 0
-11.860865 6.1559309 0
-6.3213637 8.7801593 0
-3.0767309 -7.8844598 0
-1.4720832 -0.89253596 0
-1.4720832 0.89253596 0
-3.0767309 7.8844598 0
3.0767309 -7.8844598 0
1.4720832 -0.89253596 0
1.4720832 0.89253596 0
3.0767309 7.8844598 0
6.3213637 -8.7801593 0
11.860865 -6.1559309 0
11.860865 6.1559309 0
6.3213637 8.7801593 0
9.2432129 -2.2127621 0
11.797046 -1.1653967 0
11.797046 1.1653967 0
9.2432129 2.2127621 0
9.8291158 -0.26143481 0
10.450912 -0.091594896 0
10.450912 0.091594896 0
9.8291158 0.26143481 0
