# vtk DataFile Version 4.0
hesp visualization file
ASCII
DATASET UNSTRUCTURED_GRID
POINTS 32 double
-3.288597 0.14584202 4
-4.7578678 2.2569816 4
-4.7578678 3.3553287 4
-3.288597 5.4664682 4
-3.5408817 -3.0923503 4
-1.976259 1.6772406 4
-1.976259 3.9350697 4
-3.5408817 8.7046606 4
3.4047647 -6.9218124 4
0.32966412 -1.2879375 4
0.32966412 6.9002477 4
3.4047647 12.534123 4
7.4236284 -6.9705097 4
8.7859648 1.0271197 4
8.7859648 4.5851906 4
7.4236284 12.58282 4
14.188682 -6.9705097 4
12.826345 1.0271197 4
12.826345 4.5851906 4
14.188682 12.58282 4
18.207546 -6.9218124 4
21.282646 -1.2879375 4
21.282646 6.9002477 4
18.207546 12.534123 4
25.153192 -3.0923503 4
23.588569 1.6772406 4
23.588569 3.9350697 4
25.153192 8.7046606 4
24.900907 0.14584202 4
26.370178 2.2569816 4
26.370178 3.3553287 4
24.900907 5.4664682 4
CELLS 0 0
CELL_TYPES 0
POINT_DATA 32
SCALARS m double
LOOKUP_TABLE default
1
1
1
1
1
1
1
1
1
1
1
1
1
1
1
1
1
1
1
1
1
1
1
1
1
1
1
1
1
1
1
1
VECTORS v double
-10.520692 -1.1441496 0
-11.912205 0.5317327 0
-11.912205 -0.5317327 0
-10.520692 1.1441496 0
-12.473271 -4.5531156 0
-9.825825 -0.27316158 0
-9.825825 0.27316158 0
-12.473271 4.5531156 0
-6.239738 -8.7278312 0
-8.3102896 -3.1838371 0
-8.3102896 3.1838371 0
-6.239738 8.7278312 0
-3.0733048 -7.7754991 0
-1.4033241 -0.91453077 0
-1.4033241 0.91453077 0
-3.0733048 7.7754991 0
3.0733048 -7.7754991 0
1.4033241 -0.91453077 0
1.4033241 0.91453077 0
3.0733048 7.7754991 0
6.239738 -8.7278312 0
8.3102896 -3.1838371 0
8.3102896 3.1838371 0
6.239738 8.7278312 0
12.473271 -4.5531156 0
9.825825 -0.27316158 0
9.825825 0.27316158 0
12.473271 4.5531156 0
10.520692 -1.1441496 0
11.912205 0.5317327 0
11.912205 -0.5317327 0
10.520692 1.1441496 0
