# vtk DataFile Version 4.0
hesp visualization file
ASCII
DATASET UNSTRUCTURED_GRID
POINTS 32 double
3.4011015 0.96543898 4
2.7901248 2.262851 4
2.7901248 3.3494592 4
3.4011015 4.6468713 4
4.3154379 -0.20241883 4
4.1197762 1.7917304 4
4.1197762 3.8205798 4
4.3154379 5.8147291 4
7.3375182 -1.4234197 4
5.5564087 0.71898659 4
5.5564087 4.8933236 4
7.3375182 7.0357299 4
9.3580809 -2.0716183 4
9.6715104 1.6052026 4
9.6715104 4.0071077 4
9.3580809 7.6839285 4
12.254229 -2.0716183 4
11.9408 1.6052026 4
11.9408 4.0071077 4
12.254229 7.6839285 4
14.274792 -1.4234197 4
16.055902 0.71898659 4
16.055902 4.8933236 4
14.274792 7.0357299 4
17.296872 -0.20241883 4
17.492534 1.7917304 4
17.492534 3.8205798 4
17.296872 5.8147291 4
18.211209 0.96543898 4
18.822185 2.262851 4
18.822185 3.3494592 4
18.211209 4.6468713 4
CELLS 0 0
CELL_TYPES 0
POINT_DATA 32
SCALARS m double
LOOKUP_TABLE default
1
1
1
1
1
1
1
1
1
1
1
1
1
1
1
1
1
1
1
1
1
1
1
1
1
1
1
1
1
1
1
1
VECTORS v double
-10.851705 -1.632402 0
-12.221926 -0.32822195 0
-12.221926 0.32822195 0
-10.851705 1.632402 0
-12.453351 -4.7478485 0
-9.3012544 0.031181254 0
-9.3012544 -0.031181254 0
-12.453351 4.7478485 0
-6.252764 -8.7261663 0
-8.2157221 -3.1770514 0
-8.2157221 3.1770514 0
-6.252764 8.7261663 0
-3.0601194 -7.7791052 0
-1.4137262 -0.92497855 0
-1.4137262 0.92497855 0
-3.0601194 7.7791052 0
3.0601194 -7.7791052 0
1.4137262 -0.92497855 0
1.4137262 0.92497855 0
3.0601194 7.7791052 0
6.252764 -8.7261663 0
8.2157221 -3.1770514 0
8.2157221 3.1770514 0
6.252764 8.7261663 0
12.453351 -4.7478485 0
9.3012544 0.031181254 0
9.3012544 -0.031181254 0
12.453351 4.7478485 0
10.851705 -1.632402 0
12.221926 -0.32822195 0
12.221926 0.32822195 0
10.851705 1.632402 0
