# vtk DataFile Version 4.0
hesp visualization file
ASCII
DATASET UNSTRUCTURED_GRID
POINTS 1250 double
33.841159 3.4228238 4
30.442842 2.6744838 4
33.043313 4.1801246 4
32.25499 4.2975511 4
30.343392 6.0113564 4
30.796805 6.8452227 4
30.832969 7.8584403 4
30.288897 8.9806353 4
30.288566 10.10216 4
30.288565 11.22462 4
30.288567 12.348326 4
30.288885 13.484487 4
30.753963 14.935957 4
30.288898 15.699177 4
30.288565 16.836932 4
30.288565 17.959393 4
30.288566 19.081854 4
30.288903 20.20466 4
30.568636 20.929643 4
30.285377 21.41524 4
31.465475 23.264817 4
32.207462 24.723263 4
33.083808 25.036939 4
30.431094 26.519529 4
33.841016 25.761136 4
30.527815 -5.7615044 4
33.941659 1.4054005 4
30.205518 0.79908863 4
31.402894 4.3981078 4
32.686567 6.2202352 4
31.514579 7.1064111 4
31.648275 7.7963828 4
31.037378 8.9791062 4
31.037371 10.102155 4
31.037369 11.22462 4
31.037367 12.345964 4
31.037046 13.455524 4
30.541362 14.308981 4
31.037028 15.728808 4
31.037369 16.836929 4
31.037369 17.959393 4
31.037371 19.081858 4
31.037377 20.20377 4
31.619736 21.369048 4
31.416225 22.036085 4
31.536614 22.560087 4
31.403366 24.748444 4
30.208664 28.38269 4
33.941657 27.778614 4
30.527815 34.945518 4
31.657841 0.97088628 4
31.844039 3.3980998 4
31.707558 5.4868981 4
31.953009 5.5193483 4
30.372318 5.3641997 4
31.434867 7.9791048 4
32.211975 9.9351652 4
31.615267 8.913093 4
31.614604 10.101956 4
31.614485 11.22462 4
31.614485 12.347687 4
31.614594 13.478724 4
32.110905 14.857262 4
31.614598 15.705067 4
31.614485 16.836932 4
31.614485 17.959393 4
31.614595 19.082044 4
31.613792 20.269736 4
32.228321 19.254926 4
30.794004 21.549775 4
30.4252 23.628002 4
33.320289 23.73499 4
31.585882 23.842325 4
31.849794 25.792629 4
31.657844 28.213129 4
31.665429 -1.4312175 4
30.318998 -2.2423145 4
32.3144 3.1342429 4
32.631849 4.0301945 4
30.877804 6.3746214 4
30.996965 7.0479961 4
32.151052 7.916293 4
32.166143 9.0004138 4
32.371914 10.114828 4
32.363571 11.22462 4
32.36357 12.346595 4
32.363457 13.461745 4
31.829339 14.444814 4
32.363451 15.722446 4
32.363571 16.83693 4
32.363571 17.959393 4
32.374304 19.062603 4
32.140371 20.18454 4
32.156911 21.271814 4
30.784173 21.814126 4
31.970716 23.897413 4
32.61797 25.180753 4
32.310996 26.043352 4
30.318997 31.426327 4
31.665429 30.615231 4
34.020363 4.4982833 4
30.298849 3.4965919 4
30.573749 1.7919121 4
34.512115 4.8226697 4
33.459796 6.5182456 4
32.021913 6.7295725 4
32.941944 7.8190691 4
32.940594 8.98004 4
32.94058 10.102154 4
32.940585 11.22462 4
32.940585 12.347246 4
32.940599 13.472943 4
33.147075 14.935002 4
32.940599 15.710981 4
32.940585 16.836931 4
32.940585 17.959393 4
32.94058 19.081859 4
32.940594 20.204142 4
32.941902 21.36441 4
32.023684 22.455012 4
32.302675 22.589168 4
34.075976 24.459655 4
30.574252 27.389105 4
30.296213 25.68629 4
34.101538 24.970719 4
30.92872 -0.85214715 4
32.711295 -1.0801043 4
35.270909 4.7884416 4
32.280513 5.8605937 4
34.020671 6.672081 4
33.046481 7.2355081 4
33.678906 7.8807007 4
33.690111 8.9794674 4
33.690218 10.10216 4
33.69022 11.22462 4
33.69022 12.346963 4
33.690205 13.466912 4
33.472301 14.332038 4
33.690203 15.717163 4
33.69022 16.83693 4
33.69022 17.959393 4
33.690218 19.081854 4
33.690113 20.204422 4
33.678991 21.303575 4
33.097098 22.378646 4
34.051785 22.175086 4
32.257568 23.331544 4
35.28364 24.396053 4
32.711432 30.264154 4
30.928717 30.036161 4
31.922568 1.5678874 4
36.202409 2.7357968 4
31.675663 2.8632894 4
32.692534 4.5835404 4
32.978706 5.7373325 4
34.2682 6.7288501 4
34.266937 7.8572598 4
34.266933 8.9797186 4
34.266933 10.102158 4
34.266933 11.22462 4
34.266933 12.347105 4
34.266934 13.470275 4
34.283492 14.71114 4
34.266933 15.713718 4
34.266933 16.836931 4
34.266933 17.959393 4
34.266933 19.081855 4
34.266933 20.204318 4
34.266936 21.326752 4
34.266356 22.458776 4
33.135659 23.319531 4
32.900625 24.682051 4
31.664679 26.309098 4
36.201697 26.447997 4
31.923097 27.620217 4
37.309912 -3.4149982 4
34.650096 4.0976072 4
35.653642 2.543274 4
34.053988 5.7545965 4
35.747146 5.7300459 4
35.014082 6.7387661 4
35.017329 7.8572127 4
35.01733 8.9796812 4
35.017331 10.102158 4
35.017331 11.22462 4
35.017331 12.347067 4
35.01733 13.469023 4
34.999592 14.503365 4
35.01733 15.715002 4
35.017331 16.836931 4
35.017331 17.959393 4
35.017331 19.081855 4
35.01733 20.204317 4
35.017329 21.326804 4
35.013793 22.442812 4
35.936157 23.570893 4
33.929276 23.232027 4
35.652432 26.640164 4
34.64677 25.084891 4
37.309912 32.599011 4
32.909974 3.5849139 4
34.170854 2.0045554 4
36.402681 3.1744121 4
36.366569 5.0457685 4
36.054854 6.0195404 4
35.584001 6.7402681 4
35.592741 7.8565217 4
35.593489 8.9796969 4
35.593489 10.102158 4
35.593489 11.22462 4
35.593489 12.347084 4
35.593489 13.469628 4
35.593947 14.612611 4
35.593489 15.714383 4
35.593489 16.836931 4
35.593489 17.959393 4
35.593489 19.081855 4
35.59349 20.204318 4
35.593703 21.328018 4
35.584135 22.443849 4
35.89185 23.222544 4
36.30832 24.101279 4
36.390617 26.021081 4
34.170906 27.179225 4
32.843564 25.506176 4
32.123904 1.1291711 4
35.026959 -0.81999281 4
35.231221 3.1387849 4
35.978214 4.5271501 4
35.931168 7.8321752 4
36.349268 6.7320419 4
36.343595 7.8554805 4
36.344753 8.9796948 4
36.344753 10.102158 4
36.344753 11.22462 4
36.344753 12.347082 4
36.344753 13.469489 4
36.344256 14.57762 4
36.344753 15.714525 4
36.344753 16.836931 4
36.344753 17.959393 4
36.344753 19.081855 4
36.344753 20.204318 4
36.343686 21.328565 4
36.348908 22.452307 4
35.94349 21.351245 4
35.996041 24.664542 4
35.232323 26.044128 4
35.026959 30.004004 4
32.123899 28.054836 4
32.863964 0.85066063 4
36.319133 1.8586667 4
36.951099 4.6905684 4
36.002657 4.26104 4
36.682107 5.3915698 4
36.92043 6.7379999 4
36.920163 7.8572276 4
36.920166 8.9796961 4
36.920166 10.102158 4
36.920166 11.22462 4
36.920166 12.347083 4
36.920166 13.469548 4
36.92017 14.593944 4
36.920166 15.714465 4
36.920166 16.836931 4
36.920166 17.959393 4
36.920166 19.081855 4
36.920166 20.204317 4
36.920163 21.326786 4
36.920391 22.44583 4
36.692812 23.799543 4
36.01023 24.946149 4
36.952646 24.492715 4
36.318901 27.325583 4
32.863963 28.333354 4
34.364983 1.123341 4
36.80742 1.3302078 4
37.192199 6.5675622 4
37.343444 3.8778937 4
37.118449 5.6238498 4
37.670322 6.7316385 4
37.672235 7.8572359 4
37.672239 8.9796964 4
37.672239 10.102158 4
37.672239 11.22462 4
37.672239 12.347083 4
37.672239 13.469542 4
37.672235 14.590734 4
37.672239 15.714471 4
37.672239 16.836931 4
37.672239 17.959393 4
37.672239 19.081855 4
37.672239 20.204317 4
37.672235 21.326777 4
37.670246 22.452461 4
37.118641 23.570999 4
37.341363 25.304419 4
37.188733 22.616559 4
36.807872 27.853917 4
34.364983 28.060672 4
35.492092 1.1265988 4
35.561636 2.0070431 4
38.050843 2.5323244 4
38.39371 4.9219901 4
38.247247 5.5928451 4
38.246872 6.7347607 4
38.246873 7.8572347 4
38.246873 8.9796964 4
38.246873 10.102158 4
38.246873 11.22462 4
38.246873 12.347083 4
38.246873 13.469545 4
38.246873 14.592083 4
38.246873 15.714469 4
38.246873 16.836931 4
38.246873 17.959393 4
38.246873 19.081855 4
38.246873 20.204317 4
38.246873 21.326779 4
38.246872 22.449253 4
38.246869 23.569094 4
38.397092 24.26362 4
38.048496 26.649873 4
35.561902 27.177473 4
35.492092 28.057414 4
36.60489 1.0890553 4
37.802085 1.8734525 4
37.533247 3.4513726 4
38.450534 4.4577943 4
38.99824 5.6250974 4
38.999525 6.7347788 4
38.99953 7.8572341 4
38.99953 8.9796964 4
38.99953 10.102158 4
38.99953 11.22462 4
38.99953 12.347083 4
38.99953 13.469545 4
38.99953 14.591959 4
38.99953 15.714469 4
38.99953 16.836931 4
38.99953 17.959393 4
38.99953 19.081855 4
38.99953 20.204317 4
38.99953 21.326779 4
38.999525 22.449234 4
38.998663 23.573298 4
38.450463 24.724998 4
37.533261 25.732473 4
37.802807 27.311068 4
36.604894 28.094739 4
37.736915 1.1261732 4
37.785694 2.2248992 4
38.678257 3.0942078 4
39.578772 4.5603427 4
39.573552 5.6115105 4
39.573552 6.7347726 4
39.573552 7.8572343 4
39.573552 8.9796964 4
39.573552 10.102158 4
39.573552 11.22462 4
39.573552 12.347083 4
39.573552 13.469545 4
39.573552 14.592007 4
39.573552 15.714469 4
39.573552 16.836931 4
39.573552 17.959393 4
39.573552 19.081855 4
39.573552 20.204317 4
39.573552 21.326779 4
39.573552 22.449241 4
39.573552 23.57175 4
39.578426 24.626087 4
38.678347 26.090334 4
37.786233 26.961156 4
37.736915 28.05784 4
38.859392 1.1261296 4
38.85936 2.245022 4
40.047194 4.0641986 4
40.319819 4.4423719 4
40.326404 5.6127985 4
40.326411 6.7347721 4
40.326411 7.8572343 4
40.326411 8.9796964 4
40.326411 10.102158 4
40.326411 11.22462 4
40.326411 12.347083 4
40.326411 13.469545 4
40.326411 14.592007 4
40.326411 15.714469 4
40.326411 16.836931 4
40.326411 17.959393 4
40.326411 19.081855 4
40.326411 20.204317 4
40.326411 21.326779 4
40.326411 22.449241 4
40.326405 23.571683 4
40.320206 24.740076 4
40.0482 25.118763 4
38.85936 26.938991 4
38.859392 28.057884 4
39.981855 1.1261285 4
39.98186 2.2449553 4
41.153404 2.8801469 4
40.90019 4.493422 4
40.90018 5.6123191 4
40.90018 6.7347723 4
40.90018 7.8572343 4
40.90018 8.9796964 4
40.90018 10.102158 4
40.90018 11.22462 4
40.90018 12.347083 4
40.90018 13.469545 4
40.90018 14.592007 4
40.90018 15.714469 4
40.90018 16.836931 4
40.90018 17.959393 4
40.90018 19.081855 4
40.90018 20.204317 4
40.90018 21.326779 4
40.90018 22.449241 4
40.90018 23.571694 4
40.900189 24.690678 4
41.152289 26.304531 4
39.98186 26.939058 4
39.981855 28.057885 4
41.104317 1.1261283 4
41.104302 2.244984 4
41.103113 3.3659865 4
41.651385 4.4876327 4
41.651413 5.6123047 4
41.651413 6.7347723 4
41.651413 7.8572343 4
41.651413 8.9796964 4
41.651413 10.102158 4
41.651413 11.22462 4
41.651413 12.347083 4
41.651413 13.469545 4
41.651413 14.592007 4
41.651413 15.714469 4
41.651413 16.836931 4
41.651413 17.959393 4
41.651413 19.081855 4
41.651413 20.204317 4
41.651413 21.326779 4
41.651413 22.449241 4
41.651413 23.571709 4
41.651386 24.696326 4
41.103123 25.818012 4
41.104302 26.939029 4
41.104317 28.057885 4
42.226779 1.1261281 4
42.226778 2.2449368 4
42.226777 3.3673862 4
42.226759 4.4898485 4
[...]
POINT_DATA 1250
SCALARS m double
LOOKUP_TABLE default
1
1
1
1
1
1
1
1
1
1
1
1
1
1
1
1
1
1
1
1
1
1
1
1
1
1
1
1
1
1
1
1
1
1
1
1
1
1
1
1
1
1
1
1
1
1
1
1
1
1
1
1
1
1
1
1
1
1
1
1
1
1
1
1
1
1
1
1
1
1
1
1
1
1
1
1
1
1
1
1
1
1
1
1
1
1
1
1
1
1
1
1
1
1
1
1
1
1
1
1
1
1
1
1
1
1
1
1
1
1
1
1
1
1
1
1
1
1
1
1
1
1
1
1
1
1
1
1
1
1
1
1
1
1
1
1
1
1
1
1
1
1
1
1
1
1
1
1
1
1
1
1
1
1
1
1
1
1
1
1
1
1
1
1
1
1
1
1
1
1
1
1
1
1
1
1
1
1
1
1
1
1
1
1
1
1
1
1
1
1
1
1
1
1
1
1
1
1
1
1
1
1
1
1
1
1
1
1
1
1
1
1
1
1
1
1
1
1
1
1
1
1
1
1
1
1
1
1
1
1
1
1
1
1
1
1
1
1
1
1
1
1
1
1
1
1
1
1
1
1
1
1
1
1
1
1
1
1
1
1
1
1
1
1
1
1
1
1
1
1
1
1
1
1
1
1
1
1
1
1
1
1
1
1
1
1
1
1
1
1
1
1
1
1
1
1
1
1
1
1
1
1
1
1
1
1
1
1
1
1
1
1
1
1
1
1
1
1
1
1
1
1
1
1
1
1
1
1
1
1
1
1
1
1
1
1
1
1
1
1
1
1
1
1
1
1
1
1
1
1
1
1
1
1
1
1
1
1
1
1
1
1
1
1
1
1
1
1
1
1
1
1
1
1
1
1
1
1
1
1
1
1
1
1
1
1
1
1
1
1
1
1
1
1
1
1
1
1
1
1
1
1
1
1
1
1
1
1
1
1
1
1
1
1
1
1
1
1
1
1
1
1
1
1
1
1
1
1
1
1
1
1
1
1
1
1
1
1
1
1
1
1
1
1
1
1
1
1
1
1
1
1
1
1
1
1
1
1
1
1
1
1
1
1
1
1
1
1
1
1
1
1
1
1
1
1
1
1
1
1
1
1
1
1
1
1
1
1
1
1
1
1
1
1
1
1
1
1
1
1
1
1
1
1
1
1
1
1
1
1
1
1
1
1
1
1
1
1
1
1
1
1
1
1
1
1
1
1
1
1
1
1
1
1
1
1
1
1
1
1
1
1
1
1
1
1
1
1
1
1
1
1
1
1
1
1
1
1
1
1
1
1
1
1
1
1
1
1
1
1
1
1
1
1
1
1
1
1
1
1
1
1
1
1
1
1
1
1
1
1
1
1
1
1
1
1
1
1
1
1
1
1
1
1
1
1
1
1
1
1
1
1
1
1
1
1
1
1
1
1
1
1
1
1
1
1
1
1
1
1
1
1
1
1
1
1
1
1
1
1
1
1
1
1
1
1
1
1
1
1
1
1
1
1
1
1
1
1
1
1
1
1
1
1
1
1
1
1
1
1
1
1
1
1
1
1
1
1
1
1
1
1
1
1
1
1
1
1
1
1
1
1
1
1
1
1
1
1
1
1
1
1
1
1
1
1
1
1
1
1
1
1
1
1
1
1
1
1
1
1
1
1
1
1
1
1
1
1
1
1
1
1
1
1
1
1
1
1
1
1
1
1
1
1
1
1
1
1
1
1
1
1
1
1
1
1
1
1
1
1
1
1
1
1
1
1
1
1
1
1
1
1
1
1
1
1
1
1
1
1
1
1
1
1
1
1
1
1
1
1
1
1
1
1
1
1
1
1
1
1
1
1
1
1
1
1
1
1
1
1
1
1
1
1
1
1
1
1
1
1
1
1
1
1
1
1
1
1
1
1
1
1
1
1
1
1
1
1
1
1
1
1
1
1
1
1
1
1
1
1
1
1
1
1
1
1
1
1
1
1
1
1
1
1
1
1
1
1
1
1
1
1
1
1
1
1
1
1
1
1
1
1
1
1
1
1
1
1
1
1
1
1
1
1
1
1
1
1
1
1
1
1
1
1
1
1
1
1
1
1
1
1
1
1
1
1
1
1
1
1
1
1
1
1
1
1
1
1
1
1
1
1
1
1
1
1
1
1
1
1
1
1
1
1
1
1
1
1
1
1
1
1
1
1
1
1
1
1
1
1
1
1
1
1
1
1
1
1
1
1
1
1
1
1
1
1
1
1
1
1
1
1
1
1
1
1
1
1
1
1
1
1
1
1
1
1
1
1
1
1
1
1
1
1
1
1
1
1
1
1
1
1
1
1
1
1
1
1
1
1
1
1
1
1
1
1
1
1
1
1
1
1
1
1
1
1
1
1
1
1
1
1
1
1
1
1
1
1
1
1
1
1
1
1
1
1
1
1
1
1
1
1
1
1
1
1
1
1
1
1
1
1
1
1
1
1
1
1
1
1
1
1
1
1
1
1
1
1
1
1
1
1
1
1
1
1
1
1
1
1
1
1
1
1
1
1
1
1
1
1
1
1
1
1
1
1
1
1
1
1
1
1
1
1
1
1
1
1
1
1
1
1
1
1
1
1
1
1
1
1
1
1
1
1
1
1
1
1
1
1
1
1
1
1
1
1
1
1
1
1
1
1
1
1
1
1
1
1
1
1
1
1
1
1
1
1
1
1
1
1
1
1
1
1
1
1
1
1
1
1
1
1
1
1
1
1
1
1
1
1
1
1
1
1
1
1
1
1
1
1
1
1
1
1
1
1
1
1
1
1
1
1
1
1
1
1
1
1
1
1
1
1
1
1
1
1
1
1
1
1
1
1
1
1
1
1
1
1
1
1
VECTORS v double
3.5221685 7.5377507 0
-6.3433291 -8.309653 0
8.291379 11.550684 0
-7.6770957 -7.0709194 0
-3.3998214 -4.5689214 0
-2.0141623 -7.1885115 0
10.001838 0.0090972404 0
-9.999331 0.026591667 0
-10.004218 4.6981414e-05 0
-10.004263 -3.064051e-06 0
-10.004195 0.037979539 0
-9.9936477 0.46219324 0
8.975362 4.3970351 0
-9.9931676 -0.4732191 0
-10.004264 5.234712e-05 0
-10.004263 -3.4327404e-07 0
-10.004219 -4.6512409e-05 0
-9.9991031 0.01335697 0
1.0191826 -13.49601 0
-2.2195649 -9.1050803 0
5.9191144 6.2057382 0
-10.138845 0.94818852 0
10.655896 -9.47541 0
-6.4042507 8.4113027 0
3.5218226 -7.5382539 0
-2.6313629 -13.726701 0
8.1326344 -2.6314921 0
5.4745965 -9.7863728 0
10.10808 1.3758213 0
12.814427 -3.1821066 0
-0.34105711 -5.7933692 0
-3.7514051 -5.1828245 0
10.002268 -0.021822612 0
10.002289 -0.00010657906 0
10.002215 -3.0632739e-06 0
10.002143 -0.036295243 0
9.9916414 -0.44876074 0
-9.3762901 -3.5676191 0
9.9909508 0.45871128 0
10.002213 -5.6080017e-05 0
10.002214 6.1070096e-06 0
10.002285 0.00011289086 0
10.002059 -0.014839903 0
-9.756458 2.1751471 0
-2.6789717 4.8356164 0
-0.076074681 -1.8102141 0
10.110945 -1.6558848 0
5.4849545 9.7823575 0
8.1326218 2.6314992 0
-2.631363 13.726701 0
9.322786 0.081460063 0
6.7664105 7.9269755 0
-1.8527645 6.4808342 0
-4.2372145 -0.22237092 0
8.5318103 -5.4662687 0
-1.7146889 14.035342 0
1.0153716 12.4477 0
-9.7002522 -2.0881142 0
-9.9944779 -0.012645832 0
-10.006596 -2.4632816e-05 0
-10.006587 0.017950904 0
-10.00297 0.27632708 0
9.3646738 3.4239492 0
-10.002769 -0.28327098 0
-10.006602 2.9677292e-05 0
-10.006596 2.2908429e-05 0
-9.9957677 0.011471037 0
-9.7022716 2.0857665 0
0.67569017 -9.8644946 0
2.8296863 -12.789628 0
10.000962 0.26765907 0
5.7147262 4.1952617 0
0.87698953 -5.8832487 0
7.1479813 -7.538416 0
9.3229058 -0.081499535 0
-0.49705711 -3.6834862 0
-6.8382212 -10.619347 0
-4.7780292 -5.395748 0
5.9666867 -1.0805763 0
-10.210322 5.0822826 0
3.0014462 11.97329 0
9.5464516 2.5442512 0
5.6001134 1.1002161 0
14.952369 6.888398 0
10.001218 -3.2170097e-05 0
10.001205 -0.016374262 0
9.9975506 -0.25755867 0
-9.8611093 -1.8211892 0
9.9972961 0.26310499 0
10.00122 -3.1007393e-05 0
10.001218 3.3885323e-05 0
15.758493 -9.4754717 0
5.0642745 -1.1053817 0
9.786128 -2.3014178 0
-9.8961676 4.6055867 0
3.1838922 10.155477 0
6.0220367 1.8538465 0
-4.7969095 5.3627152 0
-6.8382272 10.619345 0
-0.49705562 3.6834877 0
-7.2571666 9.6152984 0
8.2059538 4.3305803 0
-8.7578196 -4.9229396 0
9.1647842 -5.1066679 0
6.3507941 8.9607627 0
-10.01784 -0.12487562 0
-9.9544714 -1.086239 0
-10.005544 0.0099013159 0
-10.009299 -0.00029783921 0
-10.008434 -1.1290052e-05 0
-10.008428 0.004747861 0
-10.007873 0.099973347 0
-2.9401959 10.122824 0
-10.007845 -0.10311768 0
-10.008429 9.5259877e-06 0
-10.008434 1.1498186e-05 0
-10.009427 0.00032001781 0
-10.005423 -0.0050040622 0
-9.9566417 1.0667478 0
-10.191782 0.010635845 0
-6.5055312 -7.8890429 0
0.67572638 -11.87821 0
-8.7572666 4.8990208 0
8.1625252 -4.3163838 0
-1.5298523 10.464931 0
-1.124688 -6.3262278 0
-1.9932947 -10.92714 0
6.4542775 9.1882473 0
-6.9288694 10.768517 0
2.7568536 2.5151316 0
-11.715113 8.5606839 0
9.8610913 0.87800465 0
10.000093 -0.008199504 0
10.00156 4.0407323e-05 0
10.00162 -1.2887874e-06 0
10.001621 -0.0041522942 0
10.001097 -0.089364455 0
2.7858435 -8.9963664 0
10.000989 0.091491075 0
10.001622 -1.0544578e-05 0
10.001619 1.5482576e-06 0
10.001559 -3.9508189e-05 0
10.000129 0.0039107571 0
9.863308 -0.86841987 0
-10.880079 -1.3122012 0
4.0440404 -9.4089568 0
-7.6013466 -10.74092 0
6.6444365 -9.0990266 0
-1.9927097 10.927306 0
-1.1246943 6.3262311 0
-0.14888393 -4.3647464 0
1.4128913 3.4380279 0
-6.4179027 -6.8743185 0
6.4843016 5.818505 0
-14.646558 2.5398855 0
-8.5525398 0.15421688 0
-10.008844 0.00078273771 0
-10.009292 0.00062866115 0
-10.009299 5.1743277e-09 0
-10.009298 -6.9678959e-08 0
-10.009298 0.00064457503 0
-10.009272 0.02102878 0
-9.4615271 3.4742272 0
-10.009286 -0.021709115 0
-10.009298 1.9383508e-06 0
-10.009298 7.394514e-08 0
-10.009299 -3.3415569e-08 0
-10.009292 3.0192857e-05 0
-10.00894 -0.00057459192 0
-10.10146 0.22386932 0
-11.60162 -7.5301509 0
10.563781 -0.54126064 0
-6.8650983 6.4123641 0
1.4076448 -3.4474931 0
-0.14500255 4.3926718 0
4.8370531 -9.9977527 0
-5.8615763 -7.3389194 0
1.7387975 -3.4117282 0
-3.6075094 4.8094935 0
-3.6555315 -4.5360975 0
9.9455213 0.14337506 0
10.003444 -0.00079331629 0
10.003166 -0.00054804618 0
10.003167 -6.0491372e-08 0
10.003167 4.318082e-09 0
10.003167 -0.0005433209 0
10.003154 -0.018202586 0
9.4425556 -3.0598761 0
10.003126 0.018683017 0
10.003167 -1.9524095e-06 0
10.003167 4.5511048e-09 0
10.003167 6.9099431e-08 0
10.003166 -6.4574506e-06 0
10.003383 0.00091265603 0
9.9322488 -0.23212929 0
10.015477 0.087760365 0
-4.8611991 -6.9179269 0
1.7336865 3.4089062 0
-5.9920332 7.2590446 0
4.8370532 9.9977527 0
-1.275467 -6.531152 0
-9.8638189 -1.5762901 0
6.3407647 -7.0884912 0
8.5667976 4.9992621 0
5.2983607 11.664956 0
-10.185973 0.17915819 0
-10.180094 0.029271965 0
-10.009183 -2.3501763e-05 0
-10.009193 -4.794827e-07 0
-10.009193 1.7719861e-09 0
-10.009193 3.4898223e-05 0
-10.009196 0.0023591499 0
-9.9934721 0.59086192 0
-10.00919 -0.0024317757 0
-10.009193 3.9773312e-07 0
-10.009193 -1.094876e-09 0
-10.009193 4.7744124e-07 0
-10.009182 5.8103924e-05 0
-10.026562 0.044331012 0
-10.182252 -0.1790389 0
-8.1075686 -5.8145946 0
7.3270309 -5.7536022 0
6.2708798 7.1574317 0
-9.8634633 1.57488 0
-4.169969 3.3675796 0
-10.014751 0.056978516 0
-3.9332476 -8.2576574 0
2.6793495 -3.3754423 0
-0.19511335 -2.0697021 0
-1.1796198 17.658338 0
10.0995 -0.074009753 0
9.8807902 -0.10840002 0
10.005211 -8.5147987e-05 0
10.005222 -4.6590728e-07 0
10.005222 -6.5986518e-10 0
10.005222 -2.8475793e-05 0
10.005223 -0.0019818008 0
9.9897334 -0.50655604 0
10.00522 0.0020346439 0
10.005222 -2.5398128e-07 0
10.005222 4.9468018e-10 0
10.005222 4.6897516e-07 0
10.005211 5.7124288e-05 0
9.88854 0.10789478 0
10.092607 0.080613023 0
-1.2391331 -17.724972 0
0.14825947 0.25561194 0
2.6901436 3.3662628 0
-3.9332452 8.2576516 0
-10.015336 -0.05785304 0
-11.496854 -1.0674576 0
-9.9807439 -1.1079371 0
-4.8279068 8.5927189 0
-7.4006912 -5.6386416 0
3.9417489 -4.500591 0
-10.013823 0.068647878 0
-10.008602 -0.00024397068 0
-10.008406 -1.421302e-05 0
-10.008399 -3.7938951e-08 0
-10.008399 1.5424901e-10 0
-10.008399 6.8265638e-08 0
-10.0084 0.00010832088 0
-10.00825 0.054773961 0
-10.008399 -0.00011119853 0
-10.008399 6.2235965e-08 0
-10.008399 -8.3237735e-11 0
-10.008399 3.8658101e-08 0
-10.008407 1.4568805e-05 0
-10.008623 0.00025129894 0
-10.027957 -0.08473747 0
3.9882626 4.6288414 0
-6.769923 8.143482 0
-4.8156536 -8.597027 0
-9.985792 1.1145355 0
-11.496859 1.0674614 0
-10.030398 -0.0021777124 0
6.3034994 -4.806026 0
-0.71991664 15.838358 0
-7.1955286 -7.093622 0
-10.134667 0.17346052 0
9.9539648 -0.13030198 0
10.007027 5.7962148e-05 0
10.007127 1.3253055e-06 0
10.007131 4.0435815e-11 0
10.007131 -5.2469571e-12 0
10.007131 -2.4536825e-08 0
10.007131 -8.8522041e-05 0
10.007 -0.045774388 0
10.007131 9.089853e-05 0
10.007131 -2.0624097e-08 0
10.007131 9.3491654e-12 0
10.007131 -3.0369224e-11 0
10.007127 -1.2371448e-06 0
10.007023 -5.9938191e-05 0
9.953706 0.13295349 0
-10.131792 -0.037087965 0
-7.2236944 7.0705094 0
-0.73695227 -15.82871 0
6.307455 4.8300405 0
-10.030397 0.0021803788 0
-9.9976838 0.015272867 0
-8.971506 -3.4490763 0
3.6574276 1.4455106 0
4.0677525 5.5941437 0
-9.9912069 -0.55372365 0
-10.007356 -0.00032755002 0
-10.007322 6.9853391e-06 0
-10.007318 7.2315127e-09 0
-10.007318 5.0006832e-12 0
-10.007318 3.4913213e-12 0
-10.007318 2.6057231e-09 0
-10.007318 4.1561967e-08 0
-10.007317 0.002139703 0
-10.007318 6.2571984e-08 0
-10.007318 2.0292492e-09 0
-10.007318 -3.0592879e-12 0
-10.007318 -4.8145052e-12 0
-10.007318 -7.3638954e-09 0
-10.007322 -7.4608275e-06 0
-10.007352 0.00034946832 0
-10.003633 -0.070533683 0
4.1069561 -5.5691175 0
3.5988904 -1.5511971 0
-8.9674332 3.4569796 0
-9.9976827 -0.015278549 0
-11.520886 -4.9756669 0
-1.3575866 -7.011007 0
-10.014762 0.50131915 0
-10.045631 -0.33103521 0
9.9848629 0.45918687 0
10.008391 0.00024325292 0
10.008455 -1.0688038e-05 0
10.00846 1.514781e-10 0
10.00846 2.4830253e-13 0
10.00846 -7.4427492e-14 0
10.00846 -6.2865457e-10 0
10.00846 8.0217524e-09 0
10.00846 -0.0017494694 0
10.00846 1.1250412e-08 0
10.00846 -5.6264662e-10 0
10.00846 1.6253173e-13 0
10.00846 -6.6602646e-13 0
10.00846 -1.7879166e-10 0
10.008455 1.1075881e-05 0
10.008389 -0.00024903448 0
9.9978397 0.059635227 0
-10.047894 0.31313949 0
-10.014429 -0.50169423 0
-1.3476123 7.0228889 0
-11.518545 4.9440595 0
-10.00048 0.010475522 0
-8.977999 -3.6347028 0
-9.8125063 -2.144573 0
-9.8297071 1.9996692 0
-10.006223 -0.022279541 0
-10.006295 8.4969378e-06 0
-10.006295 -5.4040316e-08 0
-10.006295 5.4597819e-11 0
-10.006295 6.7478297e-13 0
-10.006295 -2.4703569e-13 0
-10.006295 7.1280479e-11 0
-10.006295 3.7110783e-09 0
-10.006295 -2.2902909e-07 0
-10.006295 3.5316925e-09 0
-10.006295 7.1212442e-11 0
-10.006295 4.9536246e-13 0
-10.006295 -6.9196986e-13 0
-10.006295 -5.4694126e-11 0
-10.006294 -3.6408833e-09 0
-10.006294 -9.2516215e-06 0
-10.006262 0.0012813263 0
-9.8410566 -1.9313242 0
-9.811763 2.1487215 0
-8.9376858 3.7342357 0
-10.000479 -0.010484527 0
-10.000057 0.0081393341 0
-10.001247 0.0019364513 0
-6.4161389 8.5885177 0
9.8148101 -1.7275219 0
10.008954 0.018031672 0
10.009026 -7.356746e-06 0
10.009027 1.1704929e-08 0
10.009027 3.2936636e-12 0
10.009027 7.5878548e-15 0
10.009027 -2.0894895e-13 0
10.009027 -3.9922736e-13 0
10.009027 9.6938452e-10 0
10.009027 -4.9886298e-09 0
10.009027 1.1263325e-09 0
10.009027 4.1672991e-13 0
10.009027 4.1327296e-13 0
10.009027 -4.9545359e-15 0
10.009027 -4.4496989e-12 0
10.009027 -6.0776283e-10 0
10.009026 7.3291188e-06 0
10.008975 -0.00085406194 0
9.8268029 1.6708673 0
-6.4027174 -8.601463 0
-10.001241 -0.0019402299 0
-10.000058 -0.0081394181 0
-10.000001 0.008093288 0
-9.9997654 0.00020015604 0
6.2769783 -6.6965826 0
-10.00512 0.099942683 0
-10.00554 0.00025105048 0
-10.00554 1.4334589e-07 0
-10.00554 -6.4885559e-10 0
-10.00554 6.0082185e-13 0
-10.00554 5.2490764e-15 0
-10.00554 -5.0018873e-14 0
-10.00554 -9.1029953e-14 0
-10.00554 1.0300621e-11 0
-10.00554 -3.7162693e-11 0
-10.00554 1.0599119e-11 0
-10.00554 8.8811318e-14 0
-10.00554 9.5221354e-14 0
-10.00554 -5.0209083e-15 0
-10.00554 -7.1942662e-13 0
-10.00554 -3.1466456e-11 0
-10.005539 -1.698975e-07 0
-10.00554 -0.00025859268 0
-10.005159 -0.097503441 0
6.2622791 6.7070956 0
-9.9997643 -0.0002015547 0
-10.000001 -0.0080933001 0
-10.000001 0.008095501 0
-10.00068 0.0046719429 0
-10.053379 -0.099872369 0
10.005172 -0.081453305 0
10.005845 -0.00020365552 0
10.005848 -7.5255621e-08 0
10.005848 -5.7082862e-11 0
10.005848 -5.6761045e-14 0
10.005848 5.5544e-15 0
10.005848 -2.9303729e-14 0
10.005848 -4.9101035e-14 0
10.005848 -6.7880086e-14 0
10.005848 -1.0721694e-13 0
10.005848 7.4556074e-14 0
10.005848 4.9100274e-14 0
10.005848 5.39891e-14 0
10.005848 -4.9456888e-15 0
10.005848 5.4772314e-15 0
10.005848 4.1017037e-11 0
10.005848 5.9371388e-08 0
10.005845 0.00021178918 0
10.005192 0.079461639 0
-10.052989 0.098848771 0
-10.000688 -0.0046922508 0
-10.000001 -0.0080955134 0
-10.000001 0.0080874731 0
-10.000038 2.1211632e-05 0
-10.000101 1.3973193e-05 0
-10.003792 2.1657393e-05 0
-10.003813 1.1662252e-06 0
-10.003813 3.73956e-09 0
-10.003813 8.8280112e-12 0
-10.003813 8.9344289e-16 0
-10.003813 5.4158183e-15 0
-10.003813 -4.659092e-15 0
-10.003813 -7.4243692e-17 0
-10.003813 4.5584489e-15 0
-10.003813 -4.7379547e-15 0
-10.003813 -1.5387683e-16 0
-10.003813 8.9609271e-17 0
-10.003813 4.8162286e-15 0
-10.003813 -4.8261112e-15 0
-10.003813 -2.6116462e-15 0
-10.003813 -9.1309162e-12 0
-10.003813 -3.7819633e-09 0
-10.003813 -1.1591788e-06 0
-10.003792 -2.193121e-05 0
-10.0001 -1.4100717e-05 0
-10.000038 -2.1128908e-05 0
-10.000001 -0.0080874723 0
-10 0.0080859935 0
-10 -1.1262216e-06 0
-10.000002 2.5374908e-07 0
-10.000006 8.6738871e-07 0
-10.000007 1.3366884e-09 0
-10.000007 3.6345842e-12 0
-10.000007 8.3277167e-16 0
-10.000007 -2.2982994e-15 0
-10.000007 5.3972455e-15 0
-10.000007 -4.646459e-15 0
-10.000007 -7.9230329e-17 0
-10.000007 4.4987167e-15 0
-10.000007 -4.6218202e-15 0
-10.000007 -1.9266671e-16 0
-10.000007 9.3954808e-17 0
-10.000007 4.8045714e-15 0
-10.000007 -4.8103353e-15 0
-10.000007 -1.542305e-17 0
-10.000007 -5.5974859e-16 0
-10.000007 -3.7611878e-12 0
-10.000007 -1.3035774e-09 0
-10.000006 -8.6746465e-07 0
-10.000002 -2.5404359e-07 0
-10 1.1267298e-06 0
-10 -0.0080859935 0
-10 0.0080859935 0
-10 -1.265376e-06 0
-10 -4.8593318e-07 0
-10 1.4487036e-10 0
-10 5.424141e-12 0
-10 -1.0932437e-15 0
-10 -2.9931933e-17 0
-10 -2.2973484e-15 0
-10 5.3976714e-15 0
-10 -4.6462768e-15 0
-10 -7.8590191e-17 0
-10 4.4996544e-15 0
-10 -4.6211895e-15 0
-10 -1.9260559e-16 0
-10 9.3597692e-17 0
-10 4.8041621e-15 0
-10 -4.8104954e-15 0
-10 -1.6611586e-17 0
-10 2.0193822e-16 0
-10 3.5309211e-15 0
-10 -5.4236642e-12 0
-10 -1.4487268e-10 0
-10 4.8593318e-07 0
-10 1.265376e-06 0
-10 -0.0080859935 0
-10 0.0080859934 0
-10 -1.2653769e-06 0
-10 -4.8593288e-07 0
-10 1.4507e-10 0
-10 5.7270745e-12 0
-10 -7.8743864e-16 0
-10 -2.9266229e-17 0
-10 -2.2966783e-15 0
-10 5.3971382e-15 0
-10 -4.6460241e-15 0
-10 -7.8660154e-17 0
-10 4.4994622e-15 0
-10 -4.6207992e-15 0
-10 -1.9352171e-16 0
-10 9.3649848e-17 0
-10 4.8042745e-15 0
-10 -4.8109105e-15 0
-10 -1.6613328e-17 0
-10 2.018646e-16 0
-10 3.2348934e-15 0
-10 -5.7266282e-12 0
-10 -1.4507226e-10 0
-10 4.8593288e-07 0
-10 1.2653769e-06 0
-10 -0.0080859934 0
-9.9999995 0.0080860016 0
-9.9999995 -1.2658088e-06 0
-9.9999995 -4.859556e-07 0
-9.9999995 1.451278e-10 0
-9.9999995 5.7272433e-12 0
-9.9999995 -7.8809419e-16 0
-9.9999995 -2.9064379e-17 0
-9.9999995 -2.2954165e-15 0
-9.9999995 5.3972278e-15 0
-9.9999995 -4.6455922e-15 0
-9.9999995 -7.7661251e-17 0
-9.9999995 4.5008481e-15 0
-9.9999995 -4.6182488e-15 0
-9.9999995 -1.9527549e-16 0
-9.9999995 9.2597081e-17 0
-9.9999995 4.8031788e-15 0
-9.9999995 -4.8107993e-15 0
-9.9999995 -1.6613149e-17 0
-9.9999995 2.0172842e-16 0
-9.9999995 3.2359214e-15 0
-9.9999995 -5.7268131e-12 0
-9.9999995 -1.4513062e-10 0
-9.9999995 4.859556e-07 0
-9.9999995 1.2658088e-06 0
-9.9999995 -0.0080860016 0
-10.000003 0.008087514 0
-9.9999989 -1.0926999e-06 0
-9.9999987 -4.8672073e-07 0
-9.9999987 1.4317747e-10 0
-9.9999987 5.7368454e-12 0
-9.9999987 -7.8284446e-16 0
-9.9999987 -2.9357511e-17 0
-9.9999987 -2.2974812e-15 0
-9.9999987 5.3981587e-15 0
-9.9999987 -4.6468448e-15 0
-9.9999987 -7.8902336e-17 0
-9.9999987 4.4997106e-15 0
-9.9999987 -4.6223698e-15 0
-9.9999987 -1.927189e-16 0
-9.9999987 9.3909448e-17 0
-9.9999987 4.8053167e-15 0
-9.9999987 -4.8118115e-15 0
-9.9999987 -1.6613753e-17 0
-9.9999987 2.020995e-16 0
-9.9999987 3.2217982e-15 0
-9.9999987 -5.736411e-12 0
-9.9999987 -1.4317993e-10 0
-9.9999987 4.8672073e-07 0
-9.9999989 1.0926999e-06 0
-10.000003 -0.008087514 0
-10.00764 0.0076404767 0
-10.008088 3.1916577e-06 0
-10.008086 -4.7612233e-07 0
-10.008086 4.8971274e-11 0
-10.008086 5.6628587e-12 0
-10.008086 -1.1925811e-16 0
-10.008086 -2.9472326e-17 0
-10.008086 -2.2430273e-15 0
-10.008086 5.2608219e-15 0
-10.008086 -4.5301382e-15 0
-10.008086 -8.0348904e-17 0
-10.008086 4.3809174e-15 0
-10.008086 -4.5128149e-15 0
-10.008086 -1.8327956e-16 0
-10.008086 9.5858859e-17 0
-10.008086 4.6866598e-15 0
-10.008086 -4.6905337e-15 0
-10.008086 -1.66138e-17 0
-10.008086 1.9825146e-16 0
-10.008086 2.5264287e-15 0
-10.008086 -5.6615942e-12 0
-10.008086 -4.8976363e-11 0
-10.008086 4.7612233e-07 0
-10.008088 -3.1916577e-06 0
-10.00764 -0.0076404767 0
-3.5222263 7.5380854 0
6.4900284 -7.9014757 0
-8.8322413 9.8787169 0
9.9045514 2.1589397 0
-8.4334494 1.6389295 0
-5.827411 1.4672289 0
-10.004872 -0.0077696149 0
9.9988938 -0.059725564 0
10.004218 5.6962552e-05 0
10.004263 4.3647686e-06 0
10.004156 -0.046749029 0
9.9926663 -0.48056967 0
-8.9744767 -4.4060541 0
9.9921236 0.49161425 0
10.004266 -5.9710895e-05 0
10.004263 -9.2904091e-09 0
10.004219 -4.6518272e-05 0
9.9991012 0.013355397 0
-1.0846225 -13.510353 0
2.2220584 -9.1042594 0
-5.9159167 6.2142392 0
10.063902 1.6744374 0
-10.005481 -10.281912 0
6.3782344 8.555043 0
-3.5217205 -7.538268 0
2.6313629 -13.726701 0
-8.1326346 -2.6314926 0
-5.4751909 -9.796866 0
-10.111819 1.6836981 0
-5.1291083 -6.605811 0
1.9915224 -9.5386581 0
-7.619787 3.1798961 0
-10.002249 0.062708929 0
-10.002282 -0.00011650733 0
-10.002214 -9.9741694e-06 0
-10.002101 0.046592138 0
-9.9903548 0.47427866 0
9.3393584 3.6613411 0
-9.9900703 -0.48430915 0
-10.00221 5.3092666e-05 0
-10.002214 5.7818393e-06 0
-10.002285 0.00011285141 0
-10.002058 -0.014838075 0
9.7565065 2.174714 0
2.6636466 4.8328567 0
-0.39709047 -2.1683126 0
-10.10875 -1.4125243 0
-5.4848438 9.7799491 0
-8.1326211 2.6315001 0
2.631363 13.726701 0
-9.3227837 0.081469184 0
-3.7059362 9.7164707 0
0.1220754 5.4013122 0
9.3089997 8.6040007 0
-8.5245144 4.967082 0
6.2999202 2.1758703 0
-0.98284831 7.4555351 0
9.7052404 -2.0116711 0
9.9969892 -0.010358177 0
10.006596 -1.9619728e-05 0
10.006542 -0.035426153 0
10.001763 -0.31695336 0
-9.3556326 -3.4224 0
10.001583 0.32405033 0
10.006603 -3.7020126e-05 0
10.006596 2.3121608e-05 0
9.9957783 0.011461398 0
9.7023549 2.0853258 0
-0.6753687 -9.8423806 0
-4.4315832 -10.122089 0
-10.000931 0.26588634 0
-5.5472977 4.4154134 0
-0.89750604 -5.7776104 0
-8.0692523 -6.3918051 0
-9.322904 -0.081487246 0
0.49705711 -3.6834862 0