# vtk DataFile Version 4.0
hesp visualization file
ASCII
DATASET UNSTRUCTURED_GRID
POINTS 1250 double
31.991145 1.4840972 4
30.324282 2.8270721 4
30.18953 3.3639796 4
30.189634 4.4898432 4
30.189634 5.6123073 4
30.189634 6.7347723 4
30.189634 7.8572343 4
30.189634 8.9796964 4
30.189634 10.102158 4
30.189634 11.22462 4
30.189634 12.347083 4
30.189634 13.469545 4
30.189634 14.592007 4
30.189634 15.714469 4
30.189634 16.836931 4
30.189634 17.959393 4
30.189634 19.081855 4
30.189634 20.204317 4
30.189634 21.326779 4
30.189634 22.449241 4
30.189634 23.571703 4
30.189634 24.69417 4
30.18953 25.820037 4
30.324283 26.356941 4
31.991145 27.699916 4
31.42236 -1.0944212 4
31.182353 2.3098538 4
31.312983 3.3712913 4
31.13712 4.4898522 4
31.137107 5.6123125 4
31.137107 6.7347723 4
31.137107 7.8572343 4
31.137107 8.9796964 4
31.137107 10.102158 4
31.137107 11.22462 4
31.137107 12.347083 4
31.137107 13.469545 4
31.137107 14.592007 4
31.137107 15.714469 4
31.137107 16.836931 4
31.137107 17.959393 4
31.137107 19.081855 4
31.137107 20.204317 4
31.137107 21.326779 4
31.137107 22.449241 4
31.137107 23.571703 4
31.13712 24.694161 4
31.312983 25.812718 4
31.182353 26.87416 4
31.42236 30.278434 4
31.068178 1.333855 4
31.712099 3.031609 4
31.540626 4.0274898 4
31.516522 4.489739 4
31.516507 5.6123084 4
31.516507 6.7347723 4
31.516507 7.8572343 4
31.516507 8.9796964 4
31.516507 10.102158 4
31.516507 11.22462 4
31.516507 12.347083 4
31.516507 13.469545 4
31.516507 14.592007 4
31.516507 15.714469 4
31.516507 16.836931 4
31.516507 17.959393 4
31.516507 19.081855 4
31.516507 20.204317 4
31.516507 21.326779 4
31.516507 22.449241 4
31.516507 23.571703 4
31.516522 24.694274 4
31.540632 25.156523 4
31.712093 26.15241 4
31.068178 27.850158 4
31.805469 -0.15402915 4
32.669993 1.3468232 4
32.464013 3.3793029 4
32.4637 4.4898566 4
32.463701 5.6123111 4
32.463701 6.7347723 4
32.463701 7.8572343 4
32.463701 8.9796964 4
32.463701 10.102158 4
32.463701 11.22462 4
32.463701 12.347083 4
32.463701 13.469545 4
32.463701 14.592007 4
32.463701 15.714469 4
32.463701 16.836931 4
32.463701 17.959393 4
32.463701 19.081855 4
32.463701 20.204317 4
32.463701 21.326779 4
32.463701 22.449241 4
32.463701 23.571703 4
32.4637 24.694157 4
32.464014 25.804701 4
32.669992 27.83719 4
31.805469 29.338042 4
33.456188 2.177048 4
31.784973 2.5271307 4
32.841858 3.3589297 4
32.843432 4.4898395 4
32.843435 5.6123097 4
32.843435 6.7347723 4
32.843435 7.8572343 4
32.843435 8.9796964 4
32.843435 10.102158 4
32.843435 11.22462 4
32.843435 12.347083 4
32.843435 13.469545 4
32.843435 14.592007 4
32.843435 15.714469 4
32.843435 16.836931 4
32.843435 17.959393 4
32.843435 19.081855 4
32.843435 20.204317 4
32.843435 21.326779 4
32.843435 22.449241 4
32.843435 23.571703 4
32.843432 24.694174 4
32.841858 25.825091 4
31.784973 26.656882 4
33.456188 27.006965 4
31.959619 0.9092424 4
34.037686 2.027923 4
33.790241 3.3712942 4
33.790192 4.4898525 4
33.790192 5.6123104 4
33.790192 6.7347723 4
33.790192 7.8572343 4
33.790192 8.9796964 4
33.790192 10.102158 4
33.790192 11.22462 4
33.790192 12.347083 4
33.790192 13.469545 4
33.790192 14.592007 4
33.790192 15.714469 4
33.790192 16.836931 4
33.790192 17.959393 4
33.790192 19.081855 4
33.790192 20.204317 4
33.790192 21.326779 4
33.790192 22.449241 4
33.790192 23.571703 4
33.790192 24.694161 4
33.790241 25.812715 4
34.037685 27.156089 4
31.959619 28.274771 4
33.215509 1.8482232 4
34.883075 2.7852884 4
34.170266 3.3650025 4
34.170306 4.489846 4
34.170306 5.6123102 4
34.170306 6.7347723 4
34.170306 7.8572343 4
34.170306 8.9796964 4
34.170306 10.102158 4
34.170306 11.22462 4
34.170306 12.347083 4
34.170306 13.469545 4
34.170306 14.592007 4
34.170306 15.714469 4
34.170306 16.836931 4
34.170306 17.959393 4
34.170306 19.081855 4
34.170306 20.204317 4
34.170306 21.326779 4
34.170306 22.449241 4
34.170306 23.571703 4
34.170306 24.694167 4
34.170266 25.819013 4
34.883075 26.398725 4
33.215509 27.33579 4
35.665314 -0.015757657 4
34.518012 2.3178516 4
35.116645 3.3678328 4
35.116655 4.4898479 4
35.116655 5.6123103 4
35.116655 6.7347723 4
35.116655 7.8572343 4
35.116655 8.9796964 4
35.116655 10.102158 4
35.116655 11.22462 4
35.116655 12.347083 4
35.116655 13.469545 4
35.116655 14.592007 4
35.116655 15.714469 4
35.116655 16.836931 4
35.116655 17.959393 4
35.116655 19.081855 4
35.116655 20.204317 4
35.116655 21.326779 4
35.116655 22.449241 4
35.116655 23.571703 4
35.116655 24.694165 4
35.116645 25.81618 4
34.518012 26.866162 4
35.665314 29.199771 4
34.795633 1.704322 4
35.334538 2.3979324 4
35.496964 3.3671492 4
35.497004 4.4898482 4
35.497004 5.6123102 4
35.497004 6.7347723 4
35.497004 7.8572343 4
35.497004 8.9796964 4
35.497004 10.102158 4
35.497004 11.22462 4
35.497004 12.347083 4
35.497004 13.469545 4
35.497004 14.592007 4
35.497004 15.714469 4
35.497004 16.836931 4
35.497004 17.959393 4
35.497004 19.081855 4
35.497004 20.204317 4
35.497004 21.326779 4
35.497004 22.449241 4
35.497004 23.571703 4
35.497004 24.694165 4
35.496964 25.816864 4
35.334538 26.786081 4
34.795633 27.479691 4
35.524513 1.1238604 4
36.491787 2.0846266 4
36.443149 3.3674116 4
36.443149 4.4898482 4
36.443149 5.6123102 4
36.443149 6.7347723 4
36.443149 7.8572343 4
36.443149 8.9796964 4
36.443149 10.102158 4
36.443149 11.22462 4
36.443149 12.347083 4
36.443149 13.469545 4
36.443149 14.592007 4
36.443149 15.714469 4
36.443149 16.836931 4
36.443149 17.959393 4
36.443149 19.081855 4
36.443149 20.204317 4
36.443149 21.326779 4
36.443149 22.449241 4
36.443149 23.571703 4
36.443149 24.694165 4
36.443149 25.816602 4
36.491787 27.099387 4
35.524513 28.060153 4
36.647079 1.1239013 4
36.758887 2.2976189 4
36.822923 3.3673769 4
36.822924 4.4898482 4
36.822924 5.6123102 4
36.822924 6.7347723 4
36.822924 7.8572343 4
36.822924 8.9796964 4
36.822924 10.102158 4
36.822924 11.22462 4
36.822924 12.347083 4
36.822924 13.469545 4
36.822924 14.592007 4
36.822924 15.714469 4
36.822924 16.836931 4
36.822924 17.959393 4
36.822924 19.081855 4
36.822924 20.204317 4
36.822924 21.326779 4
36.822924 22.449241 4
36.822924 23.571703 4
36.822924 24.694165 4
36.822923 25.816636 4
36.758887 26.886394 4
36.647079 28.060112 4
37.769544 1.1238974 4
37.769544 2.2449321 4
37.769544 3.3673861 4
37.769544 4.4898482 4
37.769544 5.6123102 4
37.769544 6.7347723 4
37.769544 7.8572343 4
37.769544 8.9796964 4
37.769544 10.102158 4
37.769544 11.22462 4
37.769544 12.347083 4
37.769544 13.469545 4
37.769544 14.592007 4
37.769544 15.714469 4
37.769544 16.836931 4
37.769544 17.959393 4
37.769544 19.081855 4
37.769544 20.204317 4
37.769544 21.326779 4
37.769544 22.449241 4
37.769544 23.571703 4
37.769544 24.694165 4
37.769544 25.816627 4
37.769544 26.939081 4
37.769544 28.060116 4
38.892007 1.1238973 4
38.892007 2.244932 4
38.892007 3.3673861 4
38.892007 4.4898482 4
38.892007 5.6123102 4
38.892007 6.7347723 4
38.892007 7.8572343 4
38.892007 8.9796964 4
38.892007 10.102158 4
38.892007 11.22462 4
38.892007 12.347083 4
38.892007 13.469545 4
38.892007 14.592007 4
38.892007 15.714469 4
38.892007 16.836931 4
38.892007 17.959393 4
38.892007 19.081855 4
38.892007 20.204317 4
38.892007 21.326779 4
38.892007 22.449241 4
38.892007 23.571703 4
38.892007 24.694165 4
38.892007 25.816627 4
38.892007 26.939081 4
38.892007 28.060116 4
40.014469 1.1238973 4
40.014469 2.244932 4
40.014469 3.3673861 4
40.014469 4.4898482 4
40.014469 5.6123102 4
40.014469 6.7347723 4
40.014469 7.8572343 4
40.014469 8.9796964 4
40.014469 10.102158 4
40.014469 11.22462 4
40.014469 12.347083 4
40.014469 13.469545 4
40.014469 14.592007 4
40.014469 15.714469 4
40.014469 16.836931 4
40.014469 17.959393 4
40.014469 19.081855 4
40.014469 20.204317 4
40.014469 21.326779 4
40.014469 22.449241 4
40.014469 23.571703 4
40.014469 24.694165 4
40.014469 25.816627 4
40.014469 26.939081 4
40.014469 28.060116 4
41.136931 1.1238973 4
41.136931 2.244932 4
41.136931 3.3673861 4
41.136931 4.4898482 4
41.136931 5.6123102 4
41.136931 6.7347723 4
41.136931 7.8572343 4
41.136931 8.9796964 4
41.136931 10.102158 4
41.136931 11.22462 4
41.136931 12.347083 4
41.136931 13.469545 4
41.136931 14.592007 4
41.136931 15.714469 4
41.136931 16.836931 4
41.136931 17.959393 4
41.136931 19.081855 4
41.136931 20.204317 4
41.136931 21.326779 4
41.136931 22.449241 4
41.136931 23.571703 4
41.136931 24.694165 4
41.136931 25.816627 4
41.136931 26.939081 4
41.136931 28.060116 4
42.259393 1.1238973 4
42.259393 2.244932 4
42.259393 3.3673861 4
42.259393 4.4898482 4
42.259393 5.6123102 4
42.259393 6.7347723 4
42.259393 7.8572343 4
42.259393 8.9796964 4
42.259393 10.102158 4
42.259393 11.22462 4
42.259393 12.347083 4
42.259393 13.469545 4
42.259393 14.592007 4
42.259393 15.714469 4
42.259393 16.836931 4
42.259393 17.959393 4
42.259393 19.081855 4
42.259393 20.204317 4
42.259393 21.326779 4
42.259393 22.449241 4
42.259393 23.571703 4
42.259393 24.694165 4
42.259393 25.816627 4
42.259393 26.939081 4
42.259393 28.060116 4
43.381855 1.1238973 4
43.381855 2.244932 4
43.381855 3.3673861 4
43.381855 4.4898482 4
43.381855 5.6123102 4
43.381855 6.7347723 4
43.381855 7.8572343 4
43.381855 8.9796964 4
43.381855 10.102158 4
43.381855 11.22462 4
43.381855 12.347083 4
43.381855 13.469545 4
43.381855 14.592007 4
43.381855 15.714469 4
43.381855 16.836931 4
43.381855 17.959393 4
43.381855 19.081855 4
43.381855 20.204317 4
43.381855 21.326779 4
43.381855 22.449241 4
43.381855 23.571703 4
43.381855 24.694165 4
43.381855 25.816627 4
43.381855 26.939081 4
43.381855 28.060116 4
44.504317 1.1238973 4
44.504317 2.244932 4
44.504317 3.3673861 4
44.504317 4.4898482 4
44.504317 5.6123102 4
44.504317 6.7347723 4
44.504317 7.8572343 4
44.504317 8.9796964 4
44.504317 10.102158 4
44.504317 11.22462 4
44.504317 12.347083 4
44.504317 13.469545 4
44.504317 14.592007 4
44.504317 15.714469 4
44.504317 16.836931 4
44.504317 17.959393 4
44.504317 19.081855 4
44.504317 20.204317 4
44.504317 21.326779 4
44.504317 22.449241 4
44.504317 23.571703 4
44.504317 24.694165 4
44.504317 25.816627 4
44.504317 26.939081 4
44.504317 28.060116 4
45.626779 1.1238973 4
[...]
POINT_DATA 1250
SCALARS m double
LOOKUP_TABLE default
1
1
1
1
1
1
1
1
1
1
1
1
1
1
1
1
1
1
1
1
1
1
1
1
1
1
1
1
1
1
1
1
1
1
1
1
1
1
1
1
1
1
1
1
1
1
1
1
1
1
1
1
1
1
1
1
1
1
1
1
1
1
1
1
1
1
1
1
1
1
1
1
1
1
1
1
1
1
1
1
1
1
1
1
1
1
1
1
1
1
1
1
1
1
1
1
1
1
1
1
1
1
1
1
1
1
1
1
1
1
1
1
1
1
1
1
1
1
1
1
1
1
1
1
1
1
1
1
1
1
1
1
1
1
1
1
1
1
1
1
1
1
1
1
1
1
1
1
1
1
1
1
1
1
1
1
1
1
1
1
1
1
1
1
1
1
1
1
1
1
1
1
1
1
1
1
1
1
1
1
1
1
1
1
1
1
1
1
1
1
1
1
1
1
1
1
1
1
1
1
1
1
1
1
1
1
1
1
1
1
1
1
1
1
1
1
1
1
1
1
1
1
1
1
1
1
1
1
1
1
1
1
1
1
1
1
1
1
1
1
1
1
1
1
1
1
1
1
1
1
1
1
1
1
1
1
1
1
1
1
1
1
1
1
1
1
1
1
1
1
1
1
1
1
1
1
1
1
1
1
1
1
1
1
1
1
1
1
1
1
1
1
1
1
1
1
1
1
1
1
1
1
1
1
1
1
1
1
1
1
1
1
1
1
1
1
1
1
1
1
1
1
1
1
1
1
1
1
1
1
1
1
1
1
1
1
1
1
1
1
1
1
1
1
1
1
1
1
1
1
1
1
1
1
1
1
1
1
1
1
1
1
1
1
1
1
1
1
1
1
1
1
1
1
1
1
1
1
1
1
1
1
1
1
1
1
1
1
1
1
1
1
1
1
1
1
1
1
1
1
1
1
1
1
1
1
1
1
1
1
1
1
1
1
1
1
1
1
1
1
1
1
1
1
1
1
1
1
1
1
1
1
1
1
1
1
1
1
1
1
1
1
1
1
1
1
1
1
1
1
1
1
1
1
1
1
1
1
1
1
1
1
1
1
1
1
1
1
1
1
1
1
1
1
1
1
1
1
1
1
1
1
1
1
1
1
1
1
1
1
1
1
1
1
1
1
1
1
1
1
1
1
1
1
1
1
1
1
1
1
1
1
1
1
1
1
1
1
1
1
1
1
1
1
1
1
1
1
1
1
1
1
1
1
1
1
1
1
1
1
1
1
1
1
1
1
1
1
1
1
1
1
1
1
1
1
1
1
1
1
1
1
1
1
1
1
1
1
1
1
1
1
1
1
1
1
1
1
1
1
1
1
1
1
1
1
1
1
1
1
1
1
1
1
1
1
1
1
1
1
1
1
1
1
1
1
1
1
1
1
1
1
1
1
1
1
1
1
1
1
1
1
1
1
1
1
1
1
1
1
1
1
1
1
1
1
1
1
1
1
1
1
1
1
1
1
1
1
1
1
1
1
1
1
1
1
1
1
1
1
1
1
1
1
1
1
1
1
1
1
1
1
1
1
1
1
1
1
1
1
1
1
1
1
1
1
1
1
1
1
1
1
1
1
1
1
1
1
1
1
1
1
1
1
1
1
1
1
1
1
1
1
1
1
1
1
1
1
1
1
1
1
1
1
1
1
1
1
1
1
1
1
1
1
1
1
1
1
1
1
1
1
1
1
1
1
1
1
1
1
1
1
1
1
1
1
1
1
1
1
1
1
1
1
1
1
1
1
1
1
1
1
1
1
1
1
1
1
1
1
1
1
1
1
1
1
1
1
1
1
1
1
1
1
1
1
1
1
1
1
1
1
1
1
1
1
1
1
1
1
1
1
1
1
1
1
1
1
1
1
1
1
1
1
1
1
1
1
1
1
1
1
1
1
1
1
1
1
1
1
1
1
1
1
1
1
1
1
1
1
1
1
1
1
1
1
1
1
1
1
1
1
1
1
1
1
1
1
1
1
1
1
1
1
1
1
1
1
1
1
1
1
1
1
1
1
1
1
1
1
1
1
1
1
1
1
1
1
1
1
1
1
1
1
1
1
1
1
1
1
1
1
1
1
1
1
1
1
1
1
1
1
1
1
1
1
1
1
1
1
1
1
1
1
1
1
1
1
1
1
1
1
1
1
1
1
1
1
1
1
1
1
1
1
1
1
1
1
1
1
1
1
1
1
1
1
1
1
1
1
1
1
1
1
1
1
1
1
1
1
1
1
1
1
1
1
1
1
1
1
1
1
1
1
1
1
1
1
1
1
1
1
1
1
1
1
1
1
1
1
1
1
1
1
1
1
1
1
1
1
1
1
1
1
1
1
1
1
1
1
1
1
1
1
1
1
1
1
1
1
1
1
1
1
1
1
1
1
1
1
1
1
1
1
1
1
1
1
1
1
1
1
1
1
1
1
1
1
1
1
1
1
1
1
1
1
1
1
1
1
1
1
1
1
1
1
1
1
1
1
1
1
1
1
1
1
1
1
1
1
1
1
1
1
1
1
1
1
1
1
1
1
1
1
1
1
1
1
1
1
1
1
1
1
1
1
1
1
1
1
1
1
1
1
1
1
1
1
1
1
1
1
1
1
1
1
1
1
1
1
1
1
1
1
1
1
1
1
1
1
1
1
1
1
1
1
1
1
1
1
1
1
1
1
1
1
1
1
1
1
1
1
1
1
1
1
1
1
1
1
1
1
1
1
1
1
1
1
1
1
1
1
1
1
1
1
1
1
1
1
1
1
1
1
1
1
1
1
1
1
1
1
1
1
1
1
1
1
1
1
1
1
1
1
1
1
1
1
1
1
1
1
1
1
1
1
1
1
1
1
VECTORS v double
9.7448176 1.6571666 0
-6.5915098 7.2893711 0
10.032634 -0.068895679 0
10.034122 -0.00010646597 0
10.034127 -0.00022629402 0
10.034128 1.2203763e-08 0
10.034128 -6.1939397e-12 0
10.034128 4.2281045e-09 0
10.034128 2.2627079e-15 0
10.034128 -5.6199417e-13 0
10.034128 4.1504013e-09 0
10.034128 4.7820395e-08 0
10.034128 4.1544657e-06 0
10.034128 -4.8132803e-08 0
10.034128 1.3215034e-12 0
10.034128 1.1156383e-12 0
10.034128 -4.3950791e-15 0
10.034128 -1.7984584e-17 0
10.034128 -7.4206893e-14 0
10.034128 -5.6117446e-11 0
10.034127 1.2695584e-06 0
10.034122 8.3230803e-05 0
10.032633 0.068977755 0
-6.5915056 -7.289375 0
9.7448179 -1.6571663 0
-2.6310591 -13.726949 0
8.0278007 -2.9237542 0
10.026538 0.059560466 0
-10.030991 -0.00065146809 0
-10.033271 0.00015602374 0
-10.033272 -7.9826355e-09 0
-10.033272 3.1805961e-12 0
-10.033272 -1.1000281e-09 0
-10.033272 1.5578758e-14 0
-10.033272 -6.1864531e-13 0
-10.033272 -1.0688106e-09 0
-10.033272 -2.4784727e-08 0
-10.033272 -2.7370779e-06 0
-10.033272 2.4981743e-08 0
-10.033272 1.0338122e-12 0
-10.033272 1.2542739e-12 0
-10.033272 -4.2742532e-15 0
-10.033272 -1.5750174e-17 0
-10.033272 -2.5491683e-13 0
-10.033272 -1.9917719e-10 0
-10.033271 3.1932169e-06 0
-10.030991 0.00064740053 0
10.026537 -0.059616554 0
8.0277972 2.9237611 0
-2.6310591 13.726949 0
-0.47792366 -5.2191428 0
0.64981283 -3.2888672 0
-5.1032427 16.423022 0
10.037367 -0.017731716 0
10.035225 -0.0001594408 0
10.035224 6.9471612e-09 0
10.035224 -5.4259392e-12 0
10.035224 8.9649468e-10 0
10.035224 1.1485378e-14 0
10.035224 -3.6634903e-13 0
10.035224 8.7142231e-10 0
10.035224 2.18993e-08 0
10.035224 2.5184646e-06 0
10.035224 -2.2046075e-08 0
10.035224 7.3900052e-13 0
10.035224 7.4279116e-13 0
10.035224 -4.1458211e-15 0
10.035224 -1.4656365e-17 0
10.035224 -2.7539762e-13 0
10.035224 -1.8049934e-10 0
10.035225 1.0240606e-05 0
10.037367 0.017737201 0
-5.1031078 -16.423048 0
0.64968111 3.2889763 0
-0.47792618 5.219141 0
-0.3441319 -3.8303738 0
-6.9517468 -10.522016 0
-10.004736 0.79908724 0
-10.033067 0.00054379207 0
-10.032964 5.4080309e-05 0
-10.032962 -2.0954144e-09 0
-10.032962 1.5099809e-12 0
-10.032962 -7.7467657e-13 0
-10.032962 4.5841875e-15 0
-10.032962 -3.9025751e-13 0
-10.032962 -7.4151545e-13 0
-10.032962 -3.3723905e-09 0
-10.032962 -7.3457341e-07 0
-10.032962 3.4127264e-09 0
-10.032962 7.3632064e-13 0
-10.032962 7.7685808e-13 0
-10.032962 -4.0148267e-15 0
-10.032962 -1.6074795e-17 0
-10.032962 -1.7772239e-13 0
-10.032962 -1.2288827e-10 0
-10.032964 3.2615427e-06 0
-10.033067 -0.00055477002 0
-10.004687 -0.79975534 0
-6.9517511 10.522015 0
-0.3441318 3.8303739 0
5.4069943 5.8327977 0
-9.6528825 2.2246962 0
9.9806706 -0.73720956 0
10.03609 -0.00068552885 0
10.036232 -5.2481878e-05 0
10.036234 1.3904714e-09 0
10.036234 -2.9578776e-12 0
10.036234 -4.6051955e-13 0
10.036234 4.3763685e-15 0
10.036234 -2.3292499e-13 0
10.036234 -4.13783e-13 0
10.036234 2.757663e-09 0
10.036234 6.3187911e-07 0
10.036234 -2.775052e-09 0
10.036234 4.6158806e-13 0
10.036234 4.623806e-13 0
10.036234 -3.88588e-15 0
10.036234 -1.5254685e-17 0
10.036234 -1.0894833e-13 0
10.036234 2.7378308e-11 0
10.036232 1.5692479e-06 0
10.03609 0.00069614402 0
9.9806204 0.7378378 0
-9.6528818 -2.2246998 0
5.4069966 -5.8328056 0
-9.976524 -1.0340516 0
-8.1914105 -5.1635441 0
-10.029721 0.25009999 0
-10.033314 0.00025971461 0
-10.033316 9.9576261e-06 0
-10.033316 -1.8181265e-10 0
-10.033316 -1.5570547e-14 0
-10.033316 -5.382824e-13 0
-10.033316 4.2190476e-15 0
-10.033316 -2.7188609e-13 0
-10.033316 -5.3777045e-13 0
-10.033316 -5.3623798e-14 0
-10.033316 -6.6143625e-08 0
-10.033316 1.9667981e-12 0
-10.033316 5.348714e-13 0
-10.033316 5.4025407e-13 0
-10.033316 -3.7566182e-15 0
-10.033316 -1.6544853e-17 0
-10.033316 -2.0621754e-14 0
-10.033316 -1.5372141e-11 0
-10.033316 -6.1271897e-08 0
-10.033314 -0.00026491713 0
-10.029715 -0.25034568 0
-8.191433 5.1635115 0
-9.976524 1.0340516 0
-9.0562289 4.0975316 0
8.0675998 5.2127251 0
10.034377 -0.2232519 0
10.036925 -0.00023106022 0
10.036926 -8.4328939e-06 0
10.036926 2.430044e-11 0
10.036926 -4.2905286e-13 0
10.036926 -4.3846654e-13 0
10.036926 4.0722646e-15 0
10.036926 -2.2191163e-13 0
10.036926 -4.3415031e-13 0
10.036926 -7.5978799e-14 0
10.036926 5.3947757e-08 0
10.036926 2.1780643e-13 0
10.036926 4.3957489e-13 0
10.036926 4.4043348e-13 0
10.036926 -3.6267107e-15 0
10.036926 -1.5627277e-17 0
10.036926 8.6022804e-16 0
10.036926 2.1921067e-11 0
10.036926 4.2505793e-08 0
10.036925 0.00023573188 0
10.034372 0.22346956 0
8.0676007 -5.212724 0
-9.0562274 -4.097516 0
4.8370546 -9.9979161 0
7.1241294 6.3301222 0
-10.035465 0.024642391 0
-10.034201 -1.7238917e-05 0
-10.034199 6.5550435e-07 0
-10.034199 -2.9711918e-12 0
-10.034199 -1.2074152e-14 0
-10.034199 -1.3170825e-13 0
-10.034199 3.9272536e-15 0
-10.034199 -6.8408724e-14 0
-10.034199 -1.3027285e-13 0
-10.034199 -1.8729158e-13 0
-10.034199 -2.6089236e-13 0
-10.034199 1.9944323e-13 0
-10.034199 1.2997038e-13 0
-10.034199 1.3355059e-13 0
-10.034199 -3.4975233e-15 0
-10.034199 -1.470761e-17 0
-10.034199 1.1066481e-16 0
-10.034199 -2.2784713e-12 0
-10.034199 -1.0859086e-08 0
-10.034201 1.6199609e-05 0
-10.035465 -0.024683298 0
7.1241506 -6.3300955 0
4.8370546 9.9979161 0
-5.8374785 6.1856021 0
-9.7613775 2.4299112 0
10.035287 -0.024903558 0
10.037175 2.0327516e-06 0
10.037177 -5.3532561e-07 0
10.037177 -5.0628265e-12 0
10.037177 -6.9808573e-14 0
10.037177 -1.7278058e-13 0
10.037177 3.7806166e-15 0
10.037177 -8.8844063e-14 0
10.037177 -1.7123443e-13 0
10.037177 -2.528833e-13 0
10.037177 -3.4713115e-13 0
10.037177 2.5735638e-13 0
10.037177 1.7124253e-13 0
10.037177 1.7454373e-13 0
10.037177 -3.3676206e-15 0
10.037177 -1.3492727e-17 0
10.037177 4.6039799e-16 0
10.037177 -7.8370486e-13 0
10.037177 9.4032267e-09 0
10.037175 -1.1474225e-06 0
10.035287 0.02493816 0
-9.7613776 -2.4299106 0
-5.8374785 -6.1856021 0
-10.002327 0.0041522731 0
-5.4839147 -9.3975994 0
-10.035528 0.0015094857 0
-10.035539 -2.2718381e-06 0
-10.035539 7.6945488e-10 0
-10.035539 1.6083021e-13 0
-10.035539 -2.7691811e-14 0
-10.035539 -1.1830917e-13 0
-10.035539 3.6337924e-15 0
-10.035539 -6.1510917e-14 0
-10.035539 -1.1681696e-13 0
-10.035539 -1.7211609e-13 0
-10.035539 -2.365967e-13 0
-10.035539 1.7501387e-13 0
-10.035539 1.1682753e-13 0
-10.035539 1.1999997e-13 0
-10.035539 -3.2377619e-15 0
-10.035539 -1.2344112e-17 0
-10.035539 9.4428455e-17 0
-10.035539 -2.6532128e-13 0
-10.035539 -4.6249433e-10 0
-10.035539 2.1967128e-06 0
-10.035528 -0.0015120112 0
-5.4839167 9.397598 0
-10.002327 -0.0041522731 0
-10.000127 0.0053280324 0
5.2284823 7.4222719 0
10.035688 -0.0011180282 0
10.03571 1.6749746e-06 0
10.035711 -6.2356609e-10 0
10.035711 4.974187e-14 0
10.035711 -6.7628095e-15 0
10.035711 -2.8417525e-14 0
10.035711 3.489128e-15 0
10.035711 -1.6471334e-14 0
10.035711 -2.6984585e-14 0
10.035711 -3.7491004e-14 0
10.035711 -5.6853898e-14 0
10.035711 4.027421e-14 0
10.035711 2.6994376e-14 0
10.035711 3.0040222e-14 0
10.035711 -3.1096611e-15 0
10.035711 -1.120675e-17 0
10.035711 1.3198099e-16 0
10.035711 -6.6209345e-14 0
10.035711 3.7411485e-10 0
10.03571 -1.613662e-06 0
10.035688 0.0011200881 0
5.2284844 -7.4222708 0
-10.000127 -0.0053280323 0
-10.00001 0.0050500894 0
-10.000082 2.7327979e-05 0
-10.000123 1.3157839e-06 0
-10.000124 2.4285654e-08 0
-10.000124 4.0554414e-12 0
-10.000124 -2.7677171e-16 0
-10.000124 -2.7100318e-18 0
-10.000124 -1.4389007e-15 0
-10.000124 3.3825115e-15 0
-10.000124 -2.9115029e-15 0
-10.000124 -4.8847122e-17 0
-10.000124 2.8202761e-15 0
-10.000124 -2.8945434e-15 0
-10.000124 -1.2180489e-16 0
-10.000124 5.8400549e-17 0
-10.000124 3.0105539e-15 0
-10.000124 -3.0146141e-15 0
-10.000124 -1.0460819e-17 0
-10.000124 1.1560305e-16 0
-10.000124 2.8401243e-15 0
-10.000124 -4.0621344e-12 0
-10.000124 -2.4285587e-08 0
-10.000123 -1.3157828e-06 0
-10.000082 -2.732798e-05 0
-10.00001 -0.0050500894 0
-10 0.0050430929 0
-10.000001 2.1025091e-05 0
-10.000001 -1.0933431e-07 0
-10.000001 -1.9602591e-10 0
-10.000001 6.7698163e-13 0
-10.000001 7.852092e-16 0
-10.000001 -4.5002815e-18 0
-10.000001 -1.4382878e-15 0
-10.000001 3.3807446e-15 0
-10.000001 -2.909452e-15 0
-10.000001 -4.8711714e-17 0
-10.000001 2.8188234e-15 0
-10.000001 -2.8929928e-15 0
-10.000001 -1.217833e-16 0
-10.000001 5.7796922e-17 0
-10.000001 3.0087815e-15 0
-10.000001 -3.0129721e-15 0
-10.000001 -1.0399789e-17 0
-10.000001 1.1650825e-16 0
-10.000001 1.9523685e-15 0
-10.000001 -6.789266e-13 0
-10.000001 1.9602408e-10 0
-10.000001 1.0933431e-07 0
-10.000001 -2.1025091e-05 0
-10 -0.0050430929 0
-10 0.0050429971 0
-10 2.0895956e-05 0
-10 -1.3673102e-07 0
-10 -1.9637083e-10 0
-10 6.7212456e-13 0
-10 7.8526852e-16 0
-10 -4.5290768e-18 0
-10 -1.4377452e-15 0
-10 3.3807349e-15 0
-10 -2.9101352e-15 0
-10 -4.8798767e-17 0
-10 2.8188998e-15 0
-10 -2.89325e-15 0
-10 -1.2158429e-16 0
-10 5.7875694e-17 0
-10 3.0088828e-15 0
-10 -3.0129288e-15 0
-10 -1.039935e-17 0
-10 1.1646964e-16 0
-10 1.9522056e-15 0
-10 -6.7404322e-13 0
-10 1.9636998e-10 0
-10 1.3673102e-07 0
-10 -2.0895956e-05 0
-10 -0.0050429971 0
-10 0.0050429971 0
-10 2.0895956e-05 0
-10 -1.3673102e-07 0
-10 -1.963685e-10 0
-10 6.7212415e-13 0
-10 7.8536697e-16 0
-10 -4.4917092e-18 0
-10 -1.4376764e-15 0
-10 3.3804429e-15 0
-10 -2.9102105e-15 0
-10 -4.8979034e-17 0
-10 2.8188676e-15 0
-10 -2.8932465e-15 0
-10 -1.2181695e-16 0
-10 5.8124424e-17 0
-10 3.0088038e-15 0
-10 -3.0128991e-15 0
-10 -1.041346e-17 0
-10 1.1647824e-16 0
-10 1.9522638e-15 0
-10 -6.7404276e-13 0
-10 1.9636765e-10 0
-10 1.3673101e-07 0
-10 -2.0895956e-05 0
-10 -0.0050429971 0
-10 0.0050429971 0
-10 2.0895956e-05 0
-10 -1.3673102e-07 0
-10 -1.963685e-10 0
-10 6.7212398e-13 0
-10 7.8539345e-16 0
-10 -4.4156406e-18 0
-10 -1.4380366e-15 0
-10 3.3805667e-15 0
-10 -2.9098734e-15 0
-10 -4.8795935e-17 0
-10 2.8186566e-15 0
-10 -2.8926902e-15 0
-10 -1.217808e-16 0
-10 5.8331778e-17 0
-10 3.0087953e-15 0
-10 -3.0127875e-15 0
-10 -1.0401969e-17 0
-10 1.1644048e-16 0
-10 1.9522448e-15 0
-10 -6.740428e-13 0
-10 1.9636765e-10 0
-10 1.3673101e-07 0
-10 -2.0895956e-05 0
-10 -0.0050429971 0
-10 0.0050429971 0
-10 2.0895956e-05 0
-10 -1.3673102e-07 0
-10 -1.963685e-10 0
-10 6.7212391e-13 0
-10 7.8524102e-16 0
-10 -4.5048402e-18 0
-10 -1.4383529e-15 0
-10 3.3807271e-15 0
-10 -2.9093722e-15 0
-10 -4.873575e-17 0
-10 2.8187492e-15 0
-10 -2.8929747e-15 0
-10 -1.2176016e-16 0
-10 5.7773065e-17 0
-10 3.0087873e-15 0
-10 -3.012879e-15 0
-10 -1.0399368e-17 0
-10 1.1641118e-16 0
-10 1.9523438e-15 0
-10 -6.7404245e-13 0
-10 1.9636765e-10 0
-10 1.3673101e-07 0
-10 -2.0895956e-05 0
-10 -0.0050429971 0
-10 0.0050429971 0
-10 2.0895956e-05 0
-10 -1.3673102e-07 0
-10 -1.963685e-10 0
-10 6.7212403e-13 0
-10 7.852473e-16 0
-10 -4.5151254e-18 0
-10 -1.4376354e-15 0
-10 3.380734e-15 0
-10 -2.9101209e-15 0
-10 -4.8750665e-17 0
-10 2.8189777e-15 0
-10 -2.8930237e-15 0
-10 -1.2171908e-16 0
-10 5.7785672e-17 0
-10 3.0088065e-15 0
-10 -3.0128832e-15 0
-10 -1.0399332e-17 0
-10 1.1641534e-16 0
-10 1.9523241e-15 0
-10 -6.7404252e-13 0
-10 1.9636765e-10 0
-10 1.3673101e-07 0
-10 -2.0895956e-05 0
-10 -0.0050429971 0
-10 0.0050429971 0
-10 2.0895956e-05 0
-10 -1.3673102e-07 0
-10 -1.963685e-10 0
-10 6.7212404e-13 0
-10 7.8525054e-16 0
-10 -4.5152365e-18 0
-10 -1.4376347e-15 0
-10 3.380734e-15 0
-10 -2.9101216e-15 0
-10 -4.8749579e-17 0
-10 2.8189765e-15 0
-10 -2.8932713e-15 0
-10 -1.217186e-16 0
-10 5.7786895e-17 0
-10 3.0088063e-15 0
-10 -3.0128825e-15 0
-10 -1.0399368e-17 0
-10 1.1641465e-16 0
-10 1.9523248e-15 0
-10 -6.7404252e-13 0
-10 1.9636765e-10 0
-10 1.3673101e-07 0
-10 -2.0895956e-05 0
-10 -0.0050429971 0
-10 0.0050429971 0
-10 2.0895956e-05 0
-10 -1.3673102e-07 0
-10 -1.963685e-10 0
-10 6.7212374e-13 0
-10 7.8545875e-16 0
-10 -4.4261912e-18 0
-10 -1.4379776e-15 0
-10 3.3806799e-15 0
-10 -2.9100892e-15 0
-10 -4.8943805e-17 0
-10 2.8188177e-15 0
-10 -2.8930922e-15 0
-10 -1.2189671e-16 0
-10 5.8067399e-17 0
-10 3.0086083e-15 0
-10 -3.0127356e-15 0
-10 -1.0416093e-17 0
-10 1.1644571e-16 0
-10 1.9520058e-15 0
-10 -6.7404254e-13 0
-10 1.9636765e-10 0
-10 1.3673101e-07 0
-10 -2.0895956e-05 0
-10 -0.0050429971 0
-10 0.0050429971 0
-10 2.0895956e-05 0
-10 -1.3673102e-07 0
-10 -1.963685e-10 0
-10 6.7212389e-13 0
-10 7.8564847e-16 0
-10 -4.4918039e-18 0
-10 -1.4385811e-15 0
-10 3.3810728e-15 0
-10 -2.910201e-15 0
-10 -4.8805571e-17 0
-10 2.8190917e-15 0
-10 -2.8936269e-15 0
-10 -1.2117091e-16 0
-10 5.8163314e-17 0
-10 3.0087633e-15 0
-10 -3.0129704e-15 0
-10 -1.0404866e-17 0
-10 1.1659645e-16 0
-10 1.9512129e-15 0
-10 -6.7404265e-13 0
-10 1.9636765e-10 0
-10 1.3673101e-07 0
-10 -2.0895956e-05 0
-10 -0.0050429971 0
-10 0.0050429971 0
-10 2.0895956e-05 0
-10 -1.3673101e-07 0
-10 -1.9636843e-10 0
-10 6.7212066e-13 0
-10 7.8541557e-16 0
-10 -4.4388066e-18 0
-10 -1.4378546e-15 0
-10 3.3807218e-15 0
-10 -2.9099641e-15 0
-10 -4.8680804e-17 0
-10 2.8191643e-15 0
-10 -2.8930664e-15 0
-10 -1.2199044e-16 0
-10 5.8012429e-17 0
-10 3.0087511e-15 0
-10 -3.0132717e-15 0
-10 -1.0406496e-17 0
-10 1.1695958e-16 0
-10 1.9517481e-15 0
-10 -6.7404262e-13 0
-10 1.9636758e-10 0
-10 1.3673101e-07 0
-10 -2.0895956e-05 0
-10 -0.0050429971 0
-9.9999999 0.0050429997 0
-9.9999999 2.0895913e-05 0
-9.9999999 -1.3673329e-07 0
-9.9999999 -1.9636609e-10 0
-9.9999999 6.7213128e-13 0
-9.9999999 7.8523161e-16 0
-9.9999999 -4.3013627e-18 0
-9.9999999 -1.437022e-15 0
-9.9999999 3.3806417e-15 0
-9.9999999 -2.9096399e-15 0
-9.9999999 -4.8077931e-17 0
-9.9999999 2.8199861e-15 0
-9.9999999 -2.8912468e-15 0
-9.9999999 -1.2341584e-16 0
-9.9999999 5.7438862e-17 0
-9.9999999 3.0079703e-15 0
-9.9999999 -3.0132125e-15 0
-9.9999999 -1.0405919e-17 0
-9.9999999 1.168937e-16 0
-9.9999999 1.9523805e-15 0
-9.9999999 -6.7405541e-13 0
-9.9999999 1.9636519e-10 0
-9.9999999 1.3673328e-07 0
-9.9999999 -2.0895913e-05 0
-9.9999999 -0.0050429997 0
-10.000022 0.0050433676 0
-10.000021 2.0940369e-05 0
-10.000021 -1.3680929e-07 0
-10.000021 -1.9664149e-10 0
-10.000021 6.7256137e-13 0
-10.000021 7.8662717e-16 0
-10.000021 -4.6493035e-18 0
-10.000021 -1.4394577e-15 0
-10.000021 3.3808594e-15 0
-10.000021 -2.9105351e-15 0
-10.000021 -4.9822017e-17 0
-10.000021 2.8176406e-15 0
-10.000021 -2.8960004e-15 0
-10.000021 -1.2015404e-16 0
-10.000021 5.9286587e-17 0
-10.000021 3.010043e-15 0
-10.000021 -3.0138106e-15 0
-10.000021 -1.0406517e-17 0
-10.000021 1.1732479e-16 0
-10.000021 1.9498611e-15 0
-10.000021 -6.7453811e-13 0
-10.000021 1.9664053e-10 0
-10.000021 1.3680929e-07 0
-10.000021 -2.0940369e-05 0
-10.000022 -0.0050433676 0
-10.004765 0.0047648167 0
-10.005043 2.1981463e-05 0
-10.005043 -1.3256004e-07 0
-10.005043 -2.0645697e-10 0
-10.005043 6.5547242e-13 0
-10.005043 8.0994597e-16 0
-10.005043 -5.0281426e-18 0
-10.005043 -1.4051826e-15 0
-10.005043 3.2949044e-15 0
-10.005043 -2.8374345e-15 0
-10.005043 -5.0618905e-17 0
-10.005043 2.7434625e-15 0
-10.005043 -2.8270906e-15 0
-10.005043 -1.1435026e-16 0
-10.005043 6.0310075e-17 0
-10.005043 2.9355636e-15 0
-10.005043 -2.9378317e-15 0
-10.005043 -1.0406446e-17 0
-10.005043 1.1518371e-16 0
-10.005043 1.8624708e-15 0
-10.005043 -6.5725744e-13 0
-10.005043 2.0645525e-10 0
-10.005043 1.3256004e-07 0
-10.005043 -2.1981463e-05 0
-10.004765 -0.0047648167 0
-9.7448176 1.6571666 0
6.5915105 7.2893697 0
-10.032634 -0.068933458 0
-10.034122 -8.017132e-05 0
-10.034127 0.00022489542 0
-10.034128 -1.2257109e-08 0
-10.034128 5.4927563e-12 0
-10.034128 -4.5216867e-09 0
-10.034128 4.0111705e-14 0
-10.034128 -7.2042491e-13 0
-10.034128 -4.4419409e-09 0
-10.034128 -4.8437771e-08 0
-10.034128 -4.1663505e-06 0
-10.034128 4.8754163e-08 0
-10.034128 1.1935465e-12 0
-10.034128 1.5063101e-12 0
-10.034128 -4.3943407e-15 0
-10.034128 -1.8305681e-17 0
-10.034128 -7.4251047e-14 0
-10.034128 -5.5512728e-11 0
-10.034127 1.2613119e-06 0
-10.034122 0.00010674518 0
-10.032633 0.068942682 0
6.5915046 -7.2893773 0
-9.7448178 -1.6571663 0
2.6310591 -13.726949 0
-8.0278015 -2.9237533 0
-10.026538 0.059563683 0
10.030991 -0.00067916936 0
10.033271 -0.00017905358 0
10.033272 9.3050579e-09 0
10.033272 -5.5940274e-12 0
10.033272 3.9656822e-09 0
10.033272 -2.7214583e-14 0
10.033272 -5.7779526e-13 0
10.033272 3.9076111e-09 0
10.033272 3.110115e-08 0
10.033272 2.8825716e-06 0
10.033272 -3.1303824e-08 0
10.033272 1.1109538e-12 0
10.033272 1.0889357e-12 0
10.033272 -4.2751916e-15 0
10.033272 -1.5422754e-17 0
10.033272 -2.5483624e-13 0
10.033272 -1.983212e-10 0
10.033271 3.198553e-06 0
10.030991 0.0006260835 0
-10.026537 -0.059613366 0
-8.0277959 2.9237625 0
2.6310591 13.726949 0
0.47792377 -5.2191427 0
-0.64981117 -3.2888683 0
5.103241 16.423022 0
-10.037367 -0.01770388 0
-10.035225 0.00015598768 0
-10.035224 -7.5333499e-09 0
-10.035224 8.0118523e-12 0
-10.035224 -3.6141027e-09 0
-10.035224 1.7460888e-15 0
-10.035224 -5.0803294e-13 0
-10.035224 -3.5643476e-09 0
-10.035224 -2.7950333e-08 0
-10.035224 -2.662603e-06 0
-10.035224 2.8098063e-08 0
-10.035224 1.0298778e-12 0
-10.035224 1.0061291e-12 0
-10.035224 -4.1448991e-15 0
-10.035224 -1.3920295e-17 0
-10.035224 -2.7539152e-13 0
-10.035224 -1.8109673e-10 0
-10.035225 1.023571e-05 0
-10.037367 0.017758113 0
5.103113 -16.423047 0
-0.64968624 3.2889729 0
0.477926 5.2191411 0
0.3441319 -3.8303738 0
6.9517469 -10.522016 0
10.004736 0.79908725 0
10.033067 0.00052148977 0
10.032964 -7.2833473e-05 0
10.032962 2.8100327e-09 0
10.032962 -2.2212993e-12 0
10.032962 8.1540027e-10 0
10.032962 -2.6330274e-15 0
10.032962 -3.4606524e-13 0
10.032962 8.0941079e-10 0