# vtk DataFile Version 4.0
hesp visualization file
ASCII
DATASET UNSTRUCTURED_GRID
POINTS 32 double
1.0394278 0.64043908 4
0.13486503 2.1768994 4
0.13486503 3.4354108 4
1.0394278 4.9718712 4
1.5732734 -1.2228699 4
2.0300357 1.7774634 4
2.0300357 3.8348469 4
1.5732734 6.8351801 4
5.963372 -3.343408 4
3.7358103 0.017876071 4
3.7358103 5.5944342 4
5.963372 8.9557182 4
8.6833681 -3.7825257 4
9.3616237 1.4026026 4
9.3616237 4.2097076 4
8.6833681 9.3948359 4
12.928942 -3.7825257 4
12.250687 1.4026026 4
12.250687 4.2097076 4
12.928942 9.3948359 4
15.648938 -3.343408 4
17.8765 0.017876071 4
17.8765 5.5944342 4
15.648938 8.9557182 4
20.039037 -1.2228699 4
19.582275 1.7774634 4
19.582275 3.8348469 4
20.039037 6.8351801 4
20.572882 0.64043908 4
21.477445 2.1768994 4
21.477445 3.4354108 4
20.572882 4.9718712 4
CELLS 0 0
CELL_TYPES 0
POINT_DATA 32
SCALARS m double
LOOKUP_TABLE default
1
1
1
1
1
1
1
1
1
1
1
1
1
1
1
1
1
1
1
1
1
1
1
1
1
1
1
1
1
1
1
1
VECTORS v double
-10.622573 -1.3208483 0
-11.980016 -0.23984823 0
-11.980016 0.23984823 0
-10.622573 1.3208483 0
-12.472684 -4.5798215 0
-9.6665698 -0.17815848 0
-9.6665698 0.17815848 0
-12.472684 4.5798215 0
-6.2422915 -8.7277122 0
-8.3006042 -3.1870466 0
-8.3006042 3.1870466 0
-6.2422915 8.7277122 0
-3.0707447 -7.7758288 0
-1.4055855 -0.91802985 0
-1.4055855 0.91802985 0
-3.0707447 7.7758288 0
3.0707447 -7.7758288 0
1.4055855 -0.91802985 0
1.4055855 0.91802985 0
3.0707447 7.7758288 0
6.2422915 -8.7277122 0
8.3006042 -3.1870466 0
8.3006042 3.1870466 0
6.2422915 8.7277122 0
12.472684 -4.5798215 0
9.6665698 -0.17815848 0
9.6665698 0.17815848 0
12.472684 4.5798215 0
10.622573 -1.3208483 0
11.980016 -0.23984823 0
11.980016 0.23984823 0
10.622573 1.3208483 0
