# vtk DataFile Version 4.0
hesp visualization file
ASCII
DATASET UNSTRUCTURED_GRID
POINTS 32 double
2.7814929 1.1314929 4
2.7890556 2.2470903 4
2.7890556 3.36522 4
2.7814929 4.4808173 4
3.8970903 1.1390556 4
3.898394 2.2483939 4
3.898394 3.3639163 4
3.8970903 4.4732547 4
5.01522 1.1390556 4
5.0139164 2.2483939 4
5.0139164 3.3639163 4
5.01522 4.4732547 4
6.1308174 1.1314929 4
6.1232548 2.2470903 4
6.1232548 3.36522 4
6.1308174 4.4808173 4
15.481493 1.1314929 4
15.489055 2.2470903 4
15.489055 3.36522 4
15.481493 4.4808173 4
16.59709 1.1390556 4
16.598394 2.2483939 4
16.598394 3.3639163 4
16.59709 4.4732547 4
17.71522 1.1390556 4
17.713916 2.2483939 4
17.713916 3.3639163 4
17.71522 4.4732547 4
18.830817 1.1314929 4
18.823255 2.2470903 4
18.823255 3.36522 4
18.830817 4.4808173 4
CELLS 0 0
CELL_TYPES 0
POINT_DATA 32
SCALARS m double
LOOKUP_TABLE default
1
1
1
1
1
1
1
1
1
1
1
1
1
1
1
1
1
1
1
1
1
1
1
1
1
1
1
1
1
1
1
1
VECTORS v double
10.098287 0.098287104 0
10.179722 0.030995727 0
10.179722 -0.030995727 0
10.098287 -0.098287104 0
10.030996 0.17972173 0
10.05574 0.055739489 0
10.05574 -0.055739489 0
10.030996 -0.17972173 0
9.9690052 0.17972178 0
9.9442615 0.055739508 0
9.9442615 -0.055739508 0
9.9690052 -0.17972178 0
9.9017145 0.098287281 0
9.82028 0.030995796 0
9.82028 -0.030995796 0
9.9017145 -0.098287281 0
-9.9017145 0.098287281 0
-9.82028 0.030995796 0
-9.82028 -0.030995796 0
-9.9017145 -0.098287281 0
-9.9690052 0.17972178 0
-9.9442615 0.055739508 0
-9.9442615 -0.055739508 0
-9.9690052 -0.17972178 0
-10.030996 0.17972173 0
-10.05574 0.055739489 0
-10.05574 -0.055739489 0
-10.030996 -0.17972173 0
-10.098287 0.098287104 0
-10.179722 0.030995727 0
-10.179722 -0.030995727 0
-10.098287 -0.098287104 0
