# vtk DataFile Version 4.0
hesp visualization file
ASCII
DATASET UNSTRUCTURED_GRID
POINTS 32 double
0.29715497 0.55012688 4
-0.70277271 2.165153 4
-0.70277271 3.4471573 4
0.29715497 5.0621834 4
0.70014122 -1.5429595 4
1.3513216 1.7635934 4
1.3513216 3.8487168 4
0.70014122 7.1552697 4
5.5264502 -3.9543509 4
3.1545988 -0.20517718 4
3.1545988 5.8174874 4
5.5264502 9.5666612 4
8.4683772 -4.3268269 4
9.2632645 1.3383804 4
9.2632645 4.2739298 4
8.4683772 9.9391371 4
13.143933 -4.3268269 4
12.349046 1.3383804 4
12.349046 4.2739298 4
13.143933 9.9391371 4
16.08586 -3.9543509 4
18.457711 -0.20517718 4
18.457711 5.8174874 4
16.08586 9.5666612 4
20.912169 -1.5429595 4
20.260989 1.7635934 4
20.260989 3.8487168 4
20.912169 7.1552697 4
21.315155 0.55012688 4
22.315083 2.165153 4
22.315083 3.4471573 4
21.315155 5.0621834 4
CELLS 0 0
CELL_TYPES 0
POINT_DATA 32
SCALARS m double
LOOKUP_TABLE default
1
1
1
1
1
1
1
1
1
1
1
1
1
1
1
1
1
1
1
1
1
1
1
1
1
1
1
1
1
1
1
1
VECTORS v double
-10.587778 -1.262923 0
-11.954415 -0.095046319 0
-11.954415 0.095046319 0
-10.587778 1.262923 0
-12.473709 -4.5669794 0
-9.7214993 -0.21525605 0
-9.7214993 0.21525605 0
-12.473709 4.5669794 0
-6.2412739 -8.72779 0
-8.3049688 -3.1859536 0
-8.3049688 3.1859536 0
-6.2412739 8.72779 0
-3.0717666 -7.7756549 0
-1.4047422 -0.91694605 0
-1.4047422 0.91694605 0
-3.0717666 7.7756549 0
3.0717666 -7.7756549 0
1.4047422 -0.91694605 0
1.4047422 0.91694605 0
3.0717666 7.7756549 0
6.2412739 -8.72779 0
8.3049688 -3.1859536 0
8.3049688 3.1859536 0
6.2412739 8.72779 0
12.473709 -4.5669794 0
9.7214993 -0.21525605 0
9.7214993 0.21525605 0
12.473709 4.5669794 0
10.587778 -1.262923 0
11.954415 -0.095046319 0
11.954415 0.095046319 0
10.587778 1.262923 0
