# vtk DataFile Version 4.0
hesp visualization file
ASCII
DATASET UNSTRUCTURED_GRID
POINTS 32 double
6.1080533 1.1580515 4
6.1368354 2.2580575 4
6.1368354 3.3542527 4
6.1080533 4.4542587 4
7.2080614 1.1868335 4
7.2176786 2.2676739 4
7.2176786 3.3446364 4
7.2080614 4.4254768 4
8.304263 1.1868343 4
8.2946487 2.2676742 4
8.2946487 3.344636 4
8.304263 4.4254759 4
9.40429 1.1580579 4
9.3755134 2.2580598 4
9.3755134 3.3542504 4
9.40429 4.4542523 4
12.20802 1.1580579 4
12.236797 2.2580598 4
12.236797 3.3542504 4
12.20802 4.4542523 4
13.308047 1.1868343 4
13.317662 2.2676742 4
13.317662 3.344636 4
13.308047 4.4254759 4
14.404249 1.1868335 4
14.394632 2.2676739 4
14.394632 3.3446364 4
14.404249 4.4254768 4
15.504257 1.1580515 4
15.475475 2.2580575 4
15.475475 3.3542527 4
15.504257 4.4542587 4
CELLS 0 0
CELL_TYPES 0
POINT_DATA 32
SCALARS m double
LOOKUP_TABLE default
1
1
1
1
1
1
1
1
1
1
1
1
1
1
1
1
1
1
1
1
1
1
1
1
1
1
1
1
1
1
1
1
VECTORS v double
9.9991241 -0.00090194542 0
9.9803092 -0.01619059 0
9.9803092 0.01619059 0
9.9991241 0.00090194542 0
9.9838791 -0.019721357 0
9.961725 -0.038362722 0
9.961725 0.038362722 0
9.9838791 0.019721357 0
10.016416 -0.019699128 0
10.038649 -0.038354352 0
10.038649 0.038354352 0
10.016416 0.019699128 0
10.001819 -0.00070756497 0
10.020809 -0.016124992 0
10.020809 0.016124992 0
10.001819 0.00070756497 0
-10.001819 -0.00070756497 0
-10.020809 -0.016124992 0
-10.020809 0.016124992 0
-10.001819 0.00070756497 0
-10.016416 -0.019699128 0
-10.038649 -0.038354352 0
-10.038649 0.038354352 0
-10.016416 0.019699128 0
-9.9838791 -0.019721357 0
-9.961725 -0.038362722 0
-9.961725 0.038362722 0
-9.9838791 0.019721357 0
-9.9991241 -0.00090194542 0
-9.9803092 -0.01619059 0
-9.9803092 0.01619059 0
-9.9991241 0.00090194542 0
