# vtk DataFile Version 4.0
hesp visualization file
ASCII
DATASET UNSTRUCTURED_GRID
POINTS 32 double
4.8189887 1.0776531 4
4.5263903 2.2464341 4
4.5263903 3.3658761 4
4.8189887 4.5346572 4
6.0510807 0.47815852 4
5.5169058 1.9141314 4
5.5169058 3.6981788 4
6.0510807 5.1341517 4
8.2142794 -0.20202191 4
6.6961332 1.1657915 4
6.6961332 4.4465187 4
8.2142794 5.8143322 4
9.7850726 -0.98178425 4
9.8706209 1.735311 4
9.8706209 3.8769992 4
9.7850726 6.5940945 4
11.827238 -0.98178425 4
11.741689 1.735311 4
11.741689 3.8769992 4
11.827238 6.5940945 4
13.398031 -0.20202191 4
14.916177 1.1657915 4
14.916177 4.4465187 4
13.398031 5.8143322 4
15.56123 0.47815852 4
16.095404 1.9141314 4
16.095404 3.6981788 4
15.56123 5.1341517 4
16.793322 1.0776531 4
17.08592 2.2464341 4
17.08592 3.3658761 4
16.793322 4.5346572 4
CELLS 0 0
CELL_TYPES 0
POINT_DATA 32
SCALARS m double
LOOKUP_TABLE default
1
1
1
1
1
1
1
1
1
1
1
1
1
1
1
1
1
1
1
1
1
1
1
1
1
1
1
1
1
1
1
1
VECTORS v double
-9.4116487 0.032246068 0
-12.431408 0.43894636 0
-12.431408 -0.43894636 0
-9.4116487 -0.032246068 0
-11.700452 -4.371436 0
-10.862919 -1.7326857 0
-10.862919 1.7326857 0
-11.700452 4.371436 0
-6.2754827 -8.7218441 0
-8.6486353 -3.8386715 0
-8.6486353 3.8386715 0
-6.2754827 8.7218441 0
-3.0364292 -7.7940285 0
-1.4350259 -0.93437115 0
-1.4350259 0.93437115 0
-3.0364292 7.7940285 0
3.0364292 -7.7940285 0
1.4350259 -0.93437115 0
1.4350259 0.93437115 0
3.0364292 7.7940285 0
6.2754827 -8.7218441 0
8.6486353 -3.8386715 0
8.6486353 3.8386715 0
6.2754827 8.7218441 0
11.700452 -4.371436 0
10.862919 -1.7326857 0
10.862919 1.7326857 0
11.700452 4.371436 0
9.4116487 0.032246068 0
12.431408 0.43894636 0
12.431408 -0.43894636 0
9.4116487 -0.032246068 0
