# vtk DataFile Version 4.0
hesp visualization file
ASCII
DATASET UNSTRUCTURED_GRID
POINTS 32 double
2.9835211 1.1335211 4
2.9927593 2.2477645 4
2.9927593 3.3645457 4
2.9835211 4.4787891 4
4.0977646 1.1427592 4
4.0996309 2.2496309 4
4.0996309 3.3626794 4
4.0977646 4.469551 4
5.2145458 1.1427593 4
5.2126794 2.2496309 4
5.2126794 3.3626794 4
5.2145458 4.469551 4
6.3287893 1.1335211 4
6.3195511 2.2477645 4
6.3195511 3.3645457 4
6.3287893 4.4787891 4
15.283521 1.1335211 4
15.292759 2.2477645 4
15.292759 3.3645457 4
15.283521 4.4787891 4
16.397764 1.1427593 4
16.399631 2.2496309 4
16.399631 3.3626794 4
16.397764 4.469551 4
17.514546 1.1427592 4
17.512679 2.2496309 4
17.512679 3.3626794 4
17.514546 4.469551 4
18.628789 1.1335211 4
18.619551 2.2477645 4
18.619551 3.3645457 4
18.628789 4.4787891 4
CELLS 0 0
CELL_TYPES 0
POINT_DATA 32
SCALARS m double
LOOKUP_TABLE default
1
1
1
1
1
1
1
1
1
1
1
1
1
1
1
1
1
1
1
1
1
1
1
1
1
1
1
1
1
1
1
1
VECTORS v double
10.104212 0.10421211 0
10.190039 0.036436479 0
10.190039 -0.036436479 0
10.104212 -0.10421211 0
10.036437 0.19003894 0
10.06806 0.068059584 0
10.06806 -0.068059584 0
10.036437 -0.19003894 0
9.9635647 0.190039 0
9.9319417 0.068059608 0
9.9319417 -0.068059608 0
9.9635647 -0.190039 0
9.89579 0.10421235 0
9.8099633 0.036436574 0
9.8099633 -0.036436574 0
9.89579 -0.10421235 0
-9.89579 0.10421235 0
-9.8099633 0.036436574 0
-9.8099633 -0.036436574 0
-9.89579 -0.10421235 0
-9.9635647 0.190039 0
-9.9319417 0.068059608 0
-9.9319417 -0.068059608 0
-9.9635647 -0.190039 0
-10.036437 0.19003894 0
-10.06806 0.068059584 0
-10.06806 -0.068059584 0
-10.036437 -0.19003894 0
-10.104212 0.10421211 0
-10.190039 0.036436479 0
-10.190039 -0.036436479 0
-10.104212 -0.10421211 0
