# vtk DataFile Version 4.0
hesp visualization file
ASCII
DATASET UNSTRUCTURED_GRID
POINTS 1250 double
38.654902 5.1400958 4
33.19127 -4.35695 4
34.131291 6.8552204 4
28.625215 -0.10571936 4
30.868806 4.2962776 4
31.538762 8.3740077 4
28.753622 6.9530016 4
33.819648 5.8176869 4
29.13955 10.039563 4
33.116234 13.805972 4
25.559716 13.512646 4
33.040416 15.846693 4
33.077188 14.788498 4
34.933998 19.398219 4
30.542817 16.114864 4
31.683417 18.264521 4
26.300387 18.082606 4
31.006626 16.946438 4
31.765782 21.37542 4
29.95302 19.760473 4
32.435911 22.124057 4
35.203745 30.563654 4
34.883316 26.661838 4
34.180014 30.119622 4
29.307849 30.875126 4
31.574443 -15.370195 4
29.000995 2.0650633 4
33.988276 -5.9718659 4
36.161905 5.6224836 4
37.914809 4.9452159 4
29.322319 8.6588917 4
31.251554 2.4738972 4
29.284345 11.033163 4
31.150987 10.124094 4
29.776938 15.622799 4
33.156383 12.771619 4
28.021281 12.285794 4
29.568419 17.304446 4
28.434542 17.937858 4
29.005308 12.464535 4
34.043609 16.884072 4
33.264753 16.87392 4
32.137916 20.161827 4
28.84701 18.364793 4
28.553664 21.601174 4
29.528164 23.521825 4
34.979098 23.356464 4
34.003845 35.150208 4
31.715845 31.715666 4
31.574443 44.554208 4
31.798893 -5.46032 4
33.408111 3.5092223 4
30.716025 8.8217397 4
33.253834 6.0866237 4
36.441404 5.5998778 4
28.948003 13.2985 4
30.457836 14.804371 4
33.094674 10.710615 4
31.104876 7.0288041 4
30.090036 11.215753 4
31.961202 11.181063 4
32.474289 13.056255 4
31.592619 15.479038 4
31.023688 16.510369 4
33.970901 17.837467 4
30.969017 17.872778 4
28.958815 19.906385 4
30.747479 20.179946 4
33.10896 19.67375 4
30.951524 20.532314 4
36.808528 22.513854 4
35.066422 27.388516 4
31.590167 27.868936 4
29.865011 24.998783 4
31.812274 34.625927 4
31.449891 -3.9639993 4
34.683171 -9.6752831 4
32.31825 5.3979283 4
34.533504 3.860227 4
27.828374 2.8325889 4
29.392659 10.703264 4
32.949704 5.941061 4
31.107801 12.416121 4
30.077123 12.246061 4
33.366244 7.8982154 4
31.409701 11.094983 4
28.370141 12.219302 4
27.28832 12.028814 4
31.59834 14.738811 4
30.623108 15.326671 4
30.703069 19.280904 4
37.024731 16.52382 4
30.620131 20.766893 4
32.66263 25.4519 4
28.712828 25.545776 4
34.10404 26.759879 4
35.467717 23.407128 4
29.611764 27.624224 4
34.683178 38.859299 4
31.466679 33.208568 4
31.790584 9.6081127 4
32.467513 2.3843082 4
35.002246 -2.2894395 4
36.556136 -0.13082116 4
33.289883 9.813158 4
29.633099 0.80118083 4
31.378711 9.0442645 4
34.773197 14.155991 4
34.218103 13.237553 4
32.09422 15.150497 4
33.159008 16.144844 4
37.10254 17.5055 4
33.682114 15.204747 4
30.009147 16.664684 4
28.498805 15.98847 4
33.648309 17.052989 4
31.901972 17.860835 4
30.477971 21.5043 4
31.864882 24.654243 4
29.629915 18.514746 4
27.043975 14.653022 4
31.128522 19.243437 4
35.429971 29.861073 4
34.064 25.76002 4
35.784566 22.241366 4
30.149102 -5.2814834 4
31.314271 -8.729139 4
32.704703 0.85445901 4
28.580877 11.742953 4
31.993841 8.8254833 4
30.814844 1.9699021 4
35.977958 6.9148925 4
36.053265 7.4359579 4
31.26802 5.4662457 4
35.509067 7.8332285 4
31.459487 12.525981 4
34.683913 12.626701 4
34.991964 8.6666674 4
34.044536 16.405464 4
36.171504 19.041753 4
33.241931 18.206536 4
31.517052 19.082242 4
30.880884 19.91103 4
30.478984 21.92071 4
28.424356 26.580467 4
34.574296 24.559412 4
30.699026 26.147834 4
33.802614 21.657164 4
31.31482 37.913307 4
30.151246 34.465468 4
31.887394 0.55199222 4
35.583954 -0.15702937 4
28.02649 -2.2349824 4
34.112747 4.2015243 4
27.112128 0.88261114 4
34.374491 8.6587029 4
38.214906 9.1227085 4
31.478316 6.9560013 4
32.565402 10.349191 4
34.349131 11.079275 4
31.559977 14.203469 4
35.01529 17.430673 4
35.492382 17.024112 4
33.923707 12.072036 4
33.756144 16.676897 4
35.623781 17.588772 4
30.768806 21.850404 4
33.594323 19.454854 4
32.78055 23.716166 4
30.358854 22.822584 4
30.013175 24.2494 4
36.112935 21.678727 4
26.829946 30.861012 4
37.097111 24.159523 4
33.613939 30.475251 4
40.69585 -10.413425 4
32.060669 2.48255 4
34.184853 1.3713668 4
30.417057 6.3860632 4
36.206874 6.2468964 4
31.218417 5.0149905 4
34.111525 9.5841951 4
35.805718 13.723269 4
34.573946 11.936987 4
37.159508 8.641118 4
33.880381 11.279718 4
32.472318 14.323357 4
32.725546 14.822639 4
34.922413 16.634783 4
35.450622 12.83343 4
35.671069 16.206127 4
32.605903 21.000877 4
40.185309 22.171683 4
31.968263 19.84426 4
29.685961 19.210548 4
35.506997 28.811632 4
32.734792 26.430652 4
33.319359 27.089784 4
31.188605 25.879428 4
40.69585 39.597438 4
29.135728 1.3242456 4
28.959626 1.1289106 4
34.460573 -3.0402686 4
31.801107 10.279866 4
37.91343 6.3781465 4
35.786083 3.3613234 4
32.770855 7.9804754 4
34.199926 14.316062 4
33.480035 14.292945 4
34.612184 13.234576 4
36.00817 15.304331 4
32.538556 15.095292 4
33.320525 19.042346 4
33.579377 16.185624 4
35.71195 21.462417 4
34.236883 13.962565 4
31.834974 19.141729 4
36.355152 20.403397 4
34.426187 17.013813 4
35.215729 21.243127 4
34.134932 22.533872 4
40.94296 21.805908 4
36.50411 33.933965 4
30.369639 26.351242 4
31.567011 27.423039 4
33.624314 -0.54077076 4
32.273679 -6.5995869 4
32.203579 -1.0325099 4
36.55892 4.4768207 4
34.447301 7.1273108 4
34.733149 9.5588534 4
36.439782 10.732821 4
33.202663 11.445549 4
39.289175 9.7569376 4
38.010963 9.3495824 4
36.049225 11.459379 4
35.779684 12.821086 4
32.911267 13.506121 4
37.471709 14.313205 4
36.286577 15.280279 4
37.875169 18.104115 4
36.724599 16.482364 4
31.55977 17.168322 4
36.759028 21.346825 4
37.924393 22.596767 4
34.096543 21.180961 4
36.601887 22.647019 4
34.484402 30.215462 4
32.273679 35.783611 4
32.259539 28.548838 4
35.431615 -1.2233751 4
35.860251 3.0976241 4
39.615892 5.2903289 4
31.611157 -1.7040933 4
40.53 3.2733357 4
39.010981 6.1787853 4
36.521912 6.5105444 4
31.946499 9.9753701 4
36.531031 4.7366062 4
35.682765 11.646569 4
32.982878 9.9203054 4
37.346868 14.673727 4
36.488514 13.886446 4
35.301239 17.939336 4
35.195264 17.2936 4
35.597596 21.735666 4
37.8344 21.673685 4
32.706946 20.004636 4
33.8278 21.057888 4
37.972757 20.455398 4
37.503763 26.51512 4
31.774344 30.270355 4
33.506658 23.360429 4
35.95412 26.484499 4
28.691691 31.403027 4
30.47574 -3.3890365 4
31.264797 -2.2246546 4
38.811612 10.555023 4
35.024258 1.2447548 4
33.896463 2.8770082 4
34.296394 3.4068761 4
33.923293 7.5353857 4
31.996543 9.1856649 4
33.580884 10.679565 4
35.562959 10.416027 4
40.94174 14.184419 4
36.704972 11.98013 4
34.432664 15.532187 4
38.450372 14.545276 4
37.980165 18.434967 4
33.734707 19.191585 4
35.387356 18.61911 4
36.727437 19.971799 4
34.387017 20.899389 4
44.190572 24.719322 4
33.038666 20.266963 4
35.69573 26.049933 4
37.714885 16.691278 4
33.060308 32.544808 4
31.45848 32.891131 4
29.365539 -2.3080912 4
31.639093 -3.3807939 4
40.776554 2.4874465 4
38.863719 6.5784971 4
37.082728 4.5508223 4
39.085198 5.7665054 4
38.688129 11.040393 4
35.980184 8.0284753 4
38.285306 11.448683 4
39.207268 14.614145 4
37.084837 14.345254 4
35.02929 12.383843 4
34.428954 15.816941 4
33.230049 15.294766 4
41.32034 16.299381 4
35.898519 19.851939 4
35.555883 21.070679 4
35.451587 18.21854 4
35.404496 19.637133 4
42.068771 23.997357 4
36.035192 23.665341 4
38.426741 25.48024 4
40.178999 26.699684 4
32.279413 34.924297 4
31.052675 30.317753 4
31.204164 -4.4115305 4
33.114302 1.8634644 4
34.063709 -2.1988755 4
34.286825 5.6080516 4
36.825193 1.8603573 4
35.414088 11.276403 4
36.095528 10.536165 4
37.838979 5.6895489 4
37.186631 10.388747 4
36.076685 11.011333 4
38.621952 12.128186 4
37.579326 12.32274 4
40.084108 16.035655 4
38.383471 16.462259 4
36.712135 15.44747 4
38.17369 20.243837 4
37.747827 18.722193 4
37.086712 18.239732 4
34.714552 17.967957 4
38.5256 20.596922 4
38.743961 25.650995 4
34.605988 29.095046 4
34.967521 31.74653 4
35.230777 31.395741 4
31.885329 32.272194 4
35.339276 -4.6950996 4
31.572085 -0.2613738 4
37.029842 2.2335312 4
38.520819 4.0149503 4
35.281588 1.4332823 4
34.775061 6.5634732 4
35.24193 6.8848819 4
39.58981 8.0889216 4
39.628588 10.56295 4
37.83189 14.358706 4
37.285456 12.466577 4
39.861736 16.131854 4
41.079013 11.139349 4
39.992037 11.312115 4
36.788143 16.952658 4
38.266461 14.868561 4
38.00766 14.752462 4
39.697623 17.046262 4
34.723517 20.801315 4
39.319183 21.499245 4
37.479824 22.910737 4
34.982799 24.271145 4
32.685559 27.152467 4
32.129568 30.134734 4
35.12703 32.024215 4
36.790163 -3.1294529 4
36.881658 2.8253775 4
37.554788 7.8957605 4
36.102169 0.49527175 4
38.935281 9.7492348 4
37.465244 5.178016 4
38.343427 8.5186285 4
39.614398 9.3714869 4
39.998531 8.5470917 4
41.804854 9.4932415 4
41.133454 12.053921 4
37.88182 11.343881 4
35.897114 14.603309 4
37.390676 16.881339 4
40.301839 14.53663 4
41.940167 16.267363 4
38.830966 19.2201 4
38.920552 20.209026 4
38.81338 21.684383 4
39.084241 19.66692 4
37.683211 24.262563 4
35.991907 26.202476 4
40.034747 25.991889 4
35.909477 24.044748 4
36.557353 32.620344 4
36.694554 -2.6936585 4
37.930049 5.2940161 4
37.902984 1.1821838 4
41.665994 6.2386119 4
36.940623 3.7966825 4
37.810731 6.904736 4
39.240873 8.0180043 4
38.059769 10.0042 4
37.615755 9.9867438 4
38.611067 11.422265 4
39.181336 12.810223 4
38.264248 14.310047 4
36.132802 13.009547 4
39.896154 18.538567 4
40.493505 17.578178 4
38.43898 17.880852 4
38.025672 18.775437 4
40.940983 18.633571 4
41.353535 20.854867 4
35.63266 22.772858 4
38.570026 22.713371 4
44.314016 23.692114 4
41.137644 30.525763 4
36.989546 26.207358 4
33.856607 32.558129 4
35.518219 -0.68635051 4
32.905877 1.1532366 4
36.451623 1.9283468 4
34.839334 6.1961167 4
36.35984 9.9251909 4
38.406476 7.9706734 4
41.275046 5.2719582 4
42.198381 5.2473784 4
39.068639 10.010035 4
41.352641 12.29398 4
40.943951 10.077578 4
39.120542 13.537353 4
43.186556 12.115902 4
37.981079 17.232487 4
38.787526 16.388451 4
39.630087 18.268444 4
42.118811 18.836569 4
40.162472 20.120655 4
39.881293 19.826786 4
37.088231 23.13933 4
38.04816 22.866071 4
36.22295 25.777402 4
36.633141 27.859247 4
37.038476 29.029008 4
34.770236 28.527735 4
34.260999 -0.59926207 4
37.432221 -4.2886675 4
35.400018 2.426966 4
[...]
POINT_DATA 1250
SCALARS m double
LOOKUP_TABLE default
1
1
1
1
1
1
1
1
1
1
1
1
1
1
1
1
1
1
1
1
1
1
1
1
1
1
1
1
1
1
1
1
1
1
1
1
1
1
1
1
1
1
1
1
1
1
1
1
1
1
1
1
1
1
1
1
1
1
1
1
1
1
1
1
1
1
1
1
1
1
1
1
1
1
1
1
1
1
1
1
1
1
1
1
1
1
1
1
1
1
1
1
1
1
1
1
1
1
1
1
1
1
1
1
1
1
1
1
1
1
1
1
1
1
1
1
1
1
1
1
1
1
1
1
1
1
1
1
1
1
1
1
1
1
1
1
1
1
1
1
1
1
1
1
1
1
1
1
1
1
1
1
1
1
1
1
1
1
1
1
1
1
1
1
1
1
1
1
1
1
1
1
1
1
1
1
1
1
1
1
1
1
1
1
1
1
1
1
1
1
1
1
1
1
1
1
1
1
1
1
1
1
1
1
1
1
1
1
1
1
1
1
1
1
1
1
1
1
1
1
1
1
1
1
1
1
1
1
1
1
1
1
1
1
1
1
1
1
1
1
1
1
1
1
1
1
1
1
1
1
1
1
1
1
1
1
1
1
1
1
1
1
1
1
1
1
1
1
1
1
1
1
1
1
1
1
1
1
1
1
1
1
1
1
1
1
1
1
1
1
1
1
1
1
1
1
1
1
1
1
1
1
1
1
1
1
1
1
1
1
1
1
1
1
1
1
1
1
1
1
1
1
1
1
1
1
1
1
1
1
1
1
1
1
1
1
1
1
1
1
1
1
1
1
1
1
1
1
1
1
1
1
1
1
1
1
1
1
1
1
1
1
1
1
1
1
1
1
1
1
1
1
1
1
1
1
1
1
1
1
1
1
1
1
1
1
1
1
1
1
1
1
1
1
1
1
1
1
1
1
1
1
1
1
1
1
1
1
1
1
1
1
1
1
1
1
1
1
1
1
1
1
1
1
1
1
1
1
1
1
1
1
1
1
1
1
1
1
1
1
1
1
1
1
1
1
1
1
1
1
1
1
1
1
1
1
1
1
1
1
1
1
1
1
1
1
1
1
1
1
1
1
1
1
1
1
1
1
1
1
1
1
1
1
1
1
1
1
1
1
1
1
1
1
1
1
1
1
1
1
1
1
1
1
1
1
1
1
1
1
1
1
1
1
1
1
1
1
1
1
1
1
1
1
1
1
1
1
1
1
1
1
1
1
1
1
1
1
1
1
1
1
1
1
1
1
1
1
1
1
1
1
1
1
1
1
1
1
1
1
1
1
1
1
1
1
1
1
1
1
1
1
1
1
1
1
1
1
1
1
1
1
1
1
1
1
1
1
1
1
1
1
1
1
1
1
1
1
1
1
1
1
1
1
1
1
1
1
1
1
1
1
1
1
1
1
1
1
1
1
1
1
1
1
1
1
1
1
1
1
1
1
1
1
1
1
1
1
1
1
1
1
1
1
1
1
1
1
1
1
1
1
1
1
1
1
1
1
1
1
1
1
1
1
1
1
1
1
1
1
1
1
1
1
1
1
1
1
1
1
1
1
1
1
1
1
1
1
1
1
1
1
1
1
1
1
1
1
1
1
1
1
1
1
1
1
1
1
1
1
1
1
1
1
1
1
1
1
1
1
1
1
1
1
1
1
1
1
1
1
1
1
1
1
1
1
1
1
1
1
1
1
1
1
1
1
1
1
1
1
1
1
1
1
1
1
1
1
1
1
1
1
1
1
1
1
1
1
1
1
1
1
1
1
1
1
1
1
1
1
1
1
1
1
1
1
1
1
1
1
1
1
1
1
1
1
1
1
1
1
1
1
1
1
1
1
1
1
1
1
1
1
1
1
1
1
1
1
1
1
1
1
1
1
1
1
1
1
1
1
1
1
1
1
1
1
1
1
1
1
1
1
1
1
1
1
1
1
1
1
1
1
1
1
1
1
1
1
1
1
1
1
1
1
1
1
1
1
1
1
1
1
1
1
1
1
1
1
1
1
1
1
1
1
1
1
1
1
1
1
1
1
1
1
1
1
1
1
1
1
1
1
1
1
1
1
1
1
1
1
1
1
1
1
1
1
1
1
1
1
1
1
1
1
1
1
1
1
1
1
1
1
1
1
1
1
1
1
1
1
1
1
1
1
1
1
1
1
1
1
1
1
1
1
1
1
1
1
1
1
1
1
1
1
1
1
1
1
1
1
1
1
1
1
1
1
1
1
1
1
1
1
1
1
1
1
1
1
1
1
1
1
1
1
1
1
1
1
1
1
1
1
1
1
1
1
1
1
1
1
1
1
1
1
1
1
1
1
1
1
1
1
1
1
1
1
1
1
1
1
1
1
1
1
1
1
1
1
1
1
1
1
1
1
1
1
1
1
1
1
1
1
1
1
1
1
1
1
1
1
1
1
1
1
1
1
1
1
1
1
1
1
1
1
1
1
1
1
1
1
1
1
1
1
1
1
1
1
1
1
1
1
1
1
1
1
1
1
1
1
1
1
1
1
1
1
1
1
1
1
1
1
1
1
1
1
1
1
1
1
1
1
1
1
1
1
1
1
1
1
1
1
1
1
1
1
1
1
1
1
1
1
1
1
1
1
1
1
1
1
1
1
1
1
1
1
1
1
1
1
1
1
1
1
1
1
1
1
1
1
1
1
1
1
1
1
1
1
1
1
1
1
1
1
1
1
1
1
1
1
1
1
1
1
1
1
1
1
1
1
1
1
1
1
1
1
1
1
1
1
1
1
1
1
1
1
1
1
1
1
1
1
1
1
1
1
1
1
1
1
1
1
1
1
1
1
1
1
1
1
1
1
1
1
1
1
1
1
1
1
VECTORS v double
16.332606 -5.1590211 0
4.5427416 -10.037519 0
-4.4579728 2.9909508 0
8.8647577 -3.3597115 0
5.5008049 -6.0037562 0
4.8214293 -5.4880227 0
4.0128398 2.3246438 0
-0.67266382 -2.03853 0
-0.54521108 -2.8910987 0
-1.1527609 -10.289255 0
-8.9397207 10.5079 0
-0.99492077 4.2710111 0
-1.3684802 10.428258 0
-11.480745 2.6404553 0
15.307398 4.2524661 0
-12.221419 -1.4468325 0
-1.2786359 -5.6020906 0
-8.144987 6.1494715 0
1.1101379 -2.1609727 0
-0.54015086 -2.3148459 0
19.235548 0.17114092 0
-3.8378275 10.933181 0
-4.6179786 9.5969688 0
-0.10362202 0.81717365 0
-3.7338254 10.013455 0
2.6309649 -13.726701 0
-9.2653582 -0.32317435 0
5.3671341 -9.5902453 0
3.3730854 0.37798649 0
5.3128754 1.0365434 0
6.5494024 2.9092582 0
8.8596637 -7.440823 0
-15.099999 -2.9783154 0
-7.4024587 12.585437 0
2.3797636 6.1818494 0
-2.3079981 -2.1803544 0
0.64309193 -1.3076098 0
-1.0635479 -2.9007232 0
-1.6778811 5.133677 0
6.5762518 8.976753 0
10.337781 0.85412571 0
0.55332998 1.9503237 0
-6.8898949 7.5247782 0
-7.2262546 -7.1716192 0
-10.937381 4.7386868 0
-8.4851136 4.3194678 0
8.3418029 -1.6900173 0
5.3884328 9.5854569 0
-4.3467186 10.955745 0
2.630965 13.726701 0
-0.30240941 -9.4878127 0
-4.5709436 -3.5990951 0
3.772743 5.711139 0
-11.08654 4.1053546 0
-0.59102561 -5.49413 0
-6.1334613 14.619499 0
2.8720564 8.7443273 0
0.29016305 2.8993606 0
2.1794621 0.43435171 0
0.15110772 -5.6041263 0
4.3569795 -14.796988 0
5.6143333 -1.3806378 0
-2.1743932 8.1561853 0
-4.8138855 -4.2691002 0
14.845964 -3.1658739 0
-6.1568386 -0.68747358 0
-12.650642 -7.0831452 0
5.5954297 -6.8522898 0
-12.505075 4.3824796 0
2.9579458 7.2643701 0
-1.6766809 -10.867579 0
-2.3140425 7.7541533 0
-9.4712477 2.7163446 0
-7.0785988 11.29267 0
-0.20335067 9.4648471 0
-0.23328325 -3.6182223 0
6.8350487 -10.617898 0
5.6204052 -1.7682698 0
11.145868 -2.1329705 0
-0.070753394 -0.21796669 0
4.8407122 -4.0390812 0
-3.1003671 -3.3665817 0
11.490881 -4.7870856 0
-0.047374838 -18.556907 0
-3.5835869 -9.6643697 0
-8.2615585 -5.8250488 0
1.6187702 -1.9633438 0
-6.2198193 -7.8635018 0
5.9925665 -8.1967074 0
4.4627995 11.997344 0
-0.042525077 -9.1348231 0
20.445377 -6.9612915 0
-5.5811173 10.099626 0
0.74117922 9.9978246 0
-5.5980627 1.0447656 0
1.9493378 8.2535875 0
-9.1375494 -5.9231519 0
-4.3524013 6.8818453 0
6.8350551 10.617903 0
1.3743228 8.9824382 0
3.3363883 2.0470175 0
-9.7192314 -7.6896459 0
-4.1820677 -6.8540075 0
-6.0719016 -10.908298 0
4.2800377 -1.7648514 0
4.0792208 -2.0667969 0
8.4436551 -1.4964495 0
-0.70025728 0.16415784 0
0.57245586 7.8044297 0
-5.8650869 -7.3019199 0
13.5831 4.2438455 0
8.67809 -4.1181694 0
1.5616808 -1.5542467 0
11.009167 4.6120007 0
-0.42591914 -12.057092 0
-6.2115762 -3.6038927 0
8.5780297 -4.7097708 0
-1.9252804 4.9630596 0
2.0291712 3.426336 0
-1.6624382 7.8472007 0
-9.1580668 -14.320787 0
7.0607472 -0.25062471 0
9.6200007 -1.060627 0
-2.8308494 9.2020412 0
-6.3754916 -0.53210349 0
1.0191625 -6.3405285 0
-1.9959867 -10.927608 0
5.4820957 1.6453895 0
-0.32431768 -15.718106 0
11.96012 -0.18191683 0
-2.3082921 -12.464789 0
-1.7165301 4.011153 0
4.0720563 -7.3946661 0
-7.1797494 -3.467613 0
3.0555918 -1.7440232 0
2.455295 4.4888128 0
8.9163125 -2.0137817 0
15.374542 -6.2787848 0
4.9895754 -7.2707131 0
2.0022328 3.6995382 0
8.1241132 12.869272 0
-5.5506659 1.8154879 0
-6.7233449 11.769623 0
-3.7587643 4.2463338 0
-15.696091 6.4832442 0
2.8577573 5.5240253 0
-5.2251531 5.1985924 0
-2.1124644 0.96889192 0
-1.9953982 10.927777 0
1.1889453 6.3268582 0
-9.0869396 -3.3926459 0
-5.6845667 -8.3473796 0
-0.4477416 -8.8552713 0
1.2110198 -13.126445 0
-7.2544764 -8.1248699 0
-1.8023937 -2.5464603 0
15.654026 -4.9509439 0
-2.8858684 -9.1200434 0
-11.588098 1.7721308 0
0.27691543 1.4667843 0
-6.8481687 2.7772988 0
-5.2581013 3.9611728 0
-13.957905 -1.7621044 0
-7.1568143 0.1074985 0
-6.3030229 3.9347061 0
-1.4251645 0.91770274 0
-3.9121892 5.1754863 0
-6.7007355 8.0934092 0
-1.7430798 9.2381947 0
16.434314 10.734414 0
-1.0569442 -4.706345 0
6.5900436 -3.3089158 0
-6.9606447 7.2262591 0
-6.1076109 0.77852237 0
6.4245178 1.2818894 0
4.8370531 -9.9977527 0
-2.5132072 0.23261359 0
2.3960935 -18.607993 0
4.0238529 8.969 0
2.7188728 -9.8595918 0
0.63838737 -2.1520334 0
13.284398 -5.4866067 0
-6.2377875 9.1814591 0
0.43824238 8.0274131 0
7.997631 -6.85306 0
-2.2272006 -0.44784503 0
-4.7474337 -8.8620724 0
-14.263037 -0.83599022 0
-1.8966085 -1.2290486 0
-5.29108 -1.5841028 0
7.1431833 2.0411949 0
-13.508485 4.9282047 0
-0.8125739 13.479181 0
-9.5255871 3.7882495 0
-7.0095758 -4.8419688 0
3.1132173 4.5819666 0
-0.83406192 7.9005646 0
-8.4934838 -2.4610273 0
1.2812584 -2.0282223 0
4.8370532 9.9977527 0
1.3148106 -5.5982945 0
-6.0080039 -1.4264675 0
-5.5712478 -7.3604258 0
-5.3634445 11.46394 0
1.5331128 3.8120875 0
1.6092334 -3.6491054 0
0.6096682 8.8959736 0
1.7040731 3.0873754 0
-1.0246002 7.8160123 0
4.7781751 11.371067 0
5.7776272 -9.0507815 0
-7.1398081 -3.2251554 0
-11.067762 -3.3944524 0
0.16069584 5.6507769 0
-1.9771045 8.8385367 0
-11.626012 -9.0493675 0
-12.641284 4.9513234 0
-6.2692818 -4.2266569 0
-3.1075031 -2.8153905 0
-1.6556236 -5.7334458 0
-6.9101684 8.7649529 0
8.0713185 -4.5828061 0
-1.1912837 12.288476 0
6.5565777 1.9573087 0
4.5545686 2.2456975 0
3.2744606 -3.2681914 0
-3.932838 -8.2531212 0
-8.2339075 -10.293022 0
-13.197793 0.11942924 0
-3.031936 -1.4650629 0
-4.4880296 5.6185759 0
-9.7148715 4.3095982 0
-1.182558 6.1047948 0
4.2342609 -7.2219514 0
-2.9351416 -0.6315377 0
-4.7555131 -4.2699503 0
-8.9735343 3.5309202 0
2.7891876 -5.1035403 0
-8.9471269 -15.064354 0
-6.115145 0.92107598 0
0.21040945 2.1307837 0
13.102553 -12.912003 0
-1.233124 -13.978155 0
2.7771635 14.519606 0
5.7261439 6.6200738 0
-3.7442011 -5.884887 0
1.4865374 -0.21289364 0
-3.8576852 17.279024 0
-3.9328712 8.2525669 0
-2.7370436 -2.112183 0
11.533935 -2.1644957 0
0.86126084 -2.1321175 0
6.6766481 -0.087746103 0
-2.2658791 -13.282639 0
-1.2720662 -5.6749861 0
7.4888232 -3.94485 0
3.1802165 1.3449913 0
-18.432229 -3.7844085 0
-8.6059775 -6.3900588 0
6.5346006 -5.2349357 0
-1.8535744 -12.001852 0
12.494769 6.9187962 0
-13.319481 5.1684332 0
-9.0251781 2.8954179 0
5.8256983 2.9621089 0
-3.5359592 11.410381 0
-2.2785447 0.66416834 0
5.2216417 1.2189899 0
-5.5180542 1.5177605 0
9.1106105 -2.7776626 0
7.419115 -1.0667887 0
-4.5769522 5.8131544 0
-1.2103035 -5.3987898 0
-5.962371 -0.53798737 0
6.1424179 1.2228054 0
-8.9238596 -6.6730308 0
-7.47762 -4.539385 0
15.057476 1.6963195 0
-3.4091065 -8.1012406 0
-1.5064099 6.745998 0
-6.5351445 -13.555867 0
-7.8969135 0.40842908 0
-9.8802854 0.80083998 0
-18.48535 3.0149662 0
-6.4645626 4.3905668 0
16.278416 4.139155 0
2.3938272 8.7896597 0
14.750809 14.268116 0
-5.6642915 -4.3743355 0
2.4159502 10.280883 0
0.97492443 -10.320758 0
6.959794 5.5360982 0
-2.8217906 2.0440358 0
-9.3099133 5.4049833 0
10.035873 6.1785487 0
-9.4503711 13.76955 0
-5.691129 -2.1657429 0
-1.9365284 -7.1475062 0
0.13369761 9.3404403 0
6.6216405 1.7772606 0
-3.9562243 -7.9693771 0
8.0490642 -7.0242992 0
-2.1646156 6.3412862 0
1.1854674 0.7075646 0
9.1413515 -3.1794493 0
-0.070532242 -8.317045 0
-1.2402163 -1.0438131 0
5.0018599 -16.060258 0
-9.6555075 5.4186284 0
12.087168 11.006329 0
-1.4689097 0.64579758 0
-3.5207168 7.573829 0
-8.5335539 -3.0965938 0
-5.8687532 5.8297763 0
-7.3689331 6.4077164 0
-4.7091485 3.2956709 0
12.245398 17.057631 0
-14.219917 -1.6260636 0
9.2176088 10.995538 0
9.9646651 4.3346364 0
-6.4605395 -5.1824857 0
1.4279551 3.7173933 0
-5.200594 2.7694069 0
-2.4468568 17.710678 0
6.6556172 16.598504 0
2.1532108 -14.02254 0
-8.9072725 -0.62054711 0
-4.122451 -9.0322661 0
4.3800702 -3.9632076 0
-6.3432029 -7.3718224 0
-8.3272713 10.899261 0
-3.7177075 -3.8069164 0
6.9213244 -4.2897054 0
-4.396542 -4.1051242 0
-8.7360065 7.6031934 0
-11.676062 0.8039327 0
-2.0790818 -1.2778401 0
-5.2271439 8.288339 0
5.5122004 -8.3046318 0
-11.283786 -2.7130695 0
2.2353717 15.109598 0
-4.5854397 2.4441428 0
5.7646559 -2.4740515 0
3.8381083 2.2850417 0
4.3044779 -10.44892 0
2.6456232 4.0560623 0
-3.0480803 9.931751 0
-5.178796 20.829101 0
0.73140343 8.7596989 0
-4.0441122 10.685524 0
-3.1177823 -11.672379 0
-8.8028912 -3.6405955 0
6.5972747 -5.2205655 0
-6.6860969 -9.210005 0
-14.992956 -5.4609756 0
-10.276862 -13.181982 0
-6.0898569 7.329867 0
1.0945872 -3.6616456 0
-8.6280061 7.6509084 0
-4.809696 12.231606 0
4.9942678 -2.7800287 0
5.6528788 1.5908735 0
-1.9287892 -13.894524 0
3.1679007 -10.538691 0
12.807637 2.5557491 0
0.05011671 -14.487737 0
19.051641 7.0322518 0
0.96167826 -17.034732 0
2.2881928 -3.006702 0
4.3412275 1.5471598 0
8.3620049 5.0261317 0
-2.8697464 1.1026286 0
-9.6051309 0.72669153 0
-5.1915295 8.2500179 0
-4.0212432 6.3549869 0
-1.6757033 -6.9779118 0
-0.17579003 -6.0021053 0
-3.8160575 4.6013978 0
-6.1463399 -4.1788706 0
2.2235027 11.026404 0
2.8635871 -1.4384878 0
-6.9770235 2.2905798 0
-1.1358762 -7.4977968 0
-11.865896 -0.08501553 0
5.7661245 -2.5364176 0
6.1012626 -1.0391891 0
3.5337652 6.2276261 0
-13.689483 3.8293457 0
-2.1222718 4.0971325 0
10.050146 -4.8849429 0
9.6420333 -7.2237761 0
-6.9451899 -2.1175012 0
-9.019999 2.5064578 0
10.048526 -2.3110796 0
8.7275159 -9.5172002 0
1.9286744 -0.19897361 0
-1.2498054 5.5310503 0
-6.0605393 10.603762 0
-5.9030452 3.0912562 0
-2.296562 7.6063566 0
10.287145 -10.978277 0
3.5581006 7.3755288 0
-11.39926 -3.0754571 0
-7.5356341 -3.7229095 0
-2.8233372 -2.5568088 0
-4.6308358 -4.2169911 0
-2.7398015 -2.1039284 0
-3.0854115 7.5500076 0
-9.4706639 -0.82949968 0
4.1331767 2.6269821 0
-1.4728413 -2.5067722 0
-4.6626219 3.2323062 0
-4.0156564 -12.620462 0
-3.2962778 -0.23931042 0
-13.523869 -0.8935407 0
-10.226261 -0.3147649 0
-0.80274826 -4.7680588 0
-2.1892621 -8.344193 0
6.0138347 4.8180748 0
-17.724401 10.215137 0
-5.8703827 7.2519888 0
4.7781028 -2.4487321 0
-1.9345467 9.3928059 0
-3.2653209 1.2324953 0
-8.5891704 13.469209 0
-6.3579869 -4.6288502 0
-12.116023 0.45480502 0
-8.6048319 -4.3611937 0
-12.95712 -2.0942242 0
-7.7428998 10.145152 0
-8.4700871 3.4804717 0
1.4150512 -7.2806816 0
1.4309936 -10.476624 0
-11.316056 -10.208327 0
-3.8820376 11.454098 0
-10.844075 -6.9625421 0
-4.4746627 4.8688168 0
6.8739735 -5.3315432 0
-8.4199521 5.2360725 0
-9.9497954 0.37882111 0
-10.34505 0.097065637 0
9.7410629 5.7421636 0
-3.7029765 0.075837981 0
2.4561658 -4.5293181 0
-8.4098176 -9.6013623 0
-2.2830685 10.538985 0
-7.7170541 0.84596569 0
-3.2999661 3.4839709 0
6.2485015 1.8494807 0
-9.720265 -2.1782152 0
-13.332172 -7.2713346 0
-6.4496654 -10.207277 0
-9.3389766 -5.3399421 0
7.3198569 0.79463248 0
-6.6317393 5.4984525 0
-0.22684393 -0.68472452 0
8.4858396 3.8683761 0
-5.2734139 -8.503232 0
-7.0241686 8.8056504 0
-1.0995933 -0.28218556 0
-6.9728266 5.2951674 0
-2.4601834 -2.4649464 0
4.2407421 7.2856915 0
2.1760373 -5.8755517 0
-2.8713595 -0.21449197 0
-2.8745846 10.074317 0
-14.001473 -3.6816211 0
-0.65456434 -0.46971588 0
4.5221015 -0.043231488 0
-6.8560692 3.7842795 0
-11.340791 1.8350435 0
2.0291977 6.1736044 0
5.9151114 3.428233 0
-6.7179111 10.487045 0
6.236773 10.046342 0
-2.4209263 3.132827 0
-7.3287239 1.3897152 0
-7.3451375 -5.9647967 0
-7.2198272 -5.8931708 0
8.2637031 -7.9403701 0
-8.1976014 5.4215098 0
-0.87146478 -8.968615 0
6.1465475 0.5767529 0
-9.6825366 -13.319074 0
11.290491 0.096991091 0
-9.5029105 11.869853 0
-2.6551056 -5.8720465 0
-2.5281219 -2.5071264 0
-5.6610109 -7.3504971 0
3.2972535 -7.1953803 0
15.386931 -10.425225 0
-3.7776936 -11.587334 0
-6.927392 6.0427521 0
1.407172 7.3199433 0
-11.776405 0.015656065 0
-11.197597 1.2533219 0
-5.7396241 -4.1465929 0
-9.3734679 -3.6083769 0
-10.131537 -0.024384653 0
-10.501987 0.68685496 0
-3.2145559 -9.7996727 0
-10.006778 0.015379021 0
-2.098651 5.8127042 0
-2.5450281 -9.0676189 0
-3.6813282 8.5822631 0
2.3671362 -4.8028715 0
-0.66123425 -7.1576869 0
-10.236971 -5.5091875 0
8.6322967 -4.4553631 0
9.9634922 0.18063161 0
-1.4548937 6.0073901 0
-0.63567402 1.4312442 0
15.027844 2.4864082 0
0.94904424 -2.8464188 0
-10.552893 -4.7910676 0
9.9771991 -0.12683505 0
14.28213 -5.2647829 0
-6.5192075 -4.1392668 0
1.1833623 5.235223 0
-0.3556889 10.643704 0
4.5769732 10.147203 0
-4.8928336 4.057642 0
-2.1298469 -1.2675184 0
-9.9527001 -0.18020236 0
-9.9851169 -0.084604577 0
-10.041586 0.044974522 0
-1.4949357 3.8731583 0
-14.026912 -3.4769506 0
1.5839861 4.9813582 0
-7.1970039 -3.143552 0
3.6937733 7.621904 0
1.9689631 11.155647 0
8.9594566 5.2129396 0
9.534229 -0.1826177 0
9.9979328 -0.00063907581 0
9.9957059 -0.21518928 0
3.073809 -10.743788 0
-12.763888 -3.39463 0
-4.5589845 9.798422 0
9.9938316 -0.27032084 0
9.9976697 0.0016790881 0
9.4922586 0.32470877 0
8.8260635 -5.0490641 0
-9.5443047 6.3446265 0
-5.6348351 6.2558193 0
-2.9411548 -3.3868583 0
-8.8697015 1.2251272 0
2.4596471 -1.8575538 0
-10.191779 0.12749648 0
-9.951158 0.10448452 0
-9.9990099 0.049854029 0
-10.090332 -0.39124187 0
3.804429 6.4728633 0
-8.0090007 4.9030322 0
3.2209491 7.1533942 0
-5.2784561 -5.6780234 0
8.6082386 9.3001338 0
9.7668286 -0.087626331 0
9.9802985 -0.0068797672 0
9.9995117 -0.0001039058 0
9.9997435 0.0009098483 0
10.001256 -0.0036288792 0
-10.22902 0.35327721 0
10.000562 0.03284681 0
9.9997544 0.0013998996 0
9.9995734 5.1151635e-05 0
9.9980079 0.0011065062 0
9.8648315 0.05989752 0
7.0716573 -6.3315519 0
-4.2621303 -5.2183335 0
-0.58696557 0.4830897 0
-6.6689848 2.4499223 0
-6.0291884 7.5864164 0
-9.3609412 4.9130788 0
-9.9978997 -0.15996098 0
-6.5703195 -8.4618478 0
-3.8668016 -7.7248695 0
-10.098894 0.061517165 0
-2.9043846 -2.788921 0
-4.9817502 -2.1164884 0
9.9011741 -1.1997948 0
5.7747371 4.8821848 0
10.000123 -0.0015228355 0
10.000425 -2.4767231e-05 0
10.000462 -1.5650045e-06 0
10.00047 -4.009997e-07 0
10.000663 9.2796484e-05 0
10.003151 -0.001220835 0
10.000658 0.00045668182 0
10.000468 -2.6429781e-06 0
10.00047 -1.0873857e-07 0
10.000447 2.2698758e-05 0
9.9988369 0.0052296542 0
6.5792321 -6.1047802 0
9.9285736 1.2257323 0
-4.4160427 2.5488827 0
1.326927 8.4325804 0
-10.080986 -0.016450264 0
-10.037602 -0.035624507 0
-10.000437 -0.014759213 0
-10.022356 0.035002642 0
-9.8582318 -0.37313342 0
-10.396214 0.13610948 0
-12.001403 -5.6283403 0
11.481475 1.2807413 0
9.8374824 -0.062733911 0
9.9902981 -0.0015764515 0
9.994294 -7.0762529e-05 0
9.9943453 -2.1140467e-06 0
9.9943466 1.0174979e-09 0
9.9943466 -8.4664525e-09 0
9.9943462 2.8272045e-07 0
9.994364 -6.0499105e-07 0
9.9943465 2.0864591e-07 0
9.9943465 -3.3454247e-08 0
9.9943466 -8.6263889e-10 0
9.9943446 3.0058532e-06 0
9.9942894 5.8624956e-05 0
9.9918792 0.0011684252 0
9.8749624 0.05044431 0
10.407639 -0.22681362 0
-12.012952 2.8019516 0
-9.9644923 -0.18454057 0
-10.014509 2.8337126e-05 0
-10.013755 -0.013748397 0
-3.5182751 7.0928239 0
-5.7859062 -5.0931346 0
-4.3631209 -11.556678 0
-3.9888704 4.5163123 0
-2.7131767 -16.977453 0
-13.621668 -6.582613 0
-6.4879129 -6.9028333 0
0.33419655 3.1806991 0
0.96259416 8.9991781 0
-17.814577 -2.8961754 0
1.8082223 11.554612 0
-14.017745 -9.060509 0
-8.3163126 12.599242 0
-13.555351 -0.27640279 0
-6.2233987 -3.1105837 0
-8.4060167 -21.40866 0
0.53505662 2.4948152 0
6.2854157 4.5860698 0
-2.1152496 1.083556 0
-6.9642016 -3.2247159 0
0.26824552 -2.8258575 0
1.8072963 14.347537 0
-5.3542695 0.72157999 0
-6.4919484 -4.4212325 0
3.7029383 13.668098 0
-2.6309649 -13.726701 0
-0.88788464 -11.231084 0
-5.3659454 -9.614221 0
-5.7659077 -7.2150394 0
-4.4255063 0.8242493 0
6.3808369 5.3283966 0
2.463437 0.8179085 0
-0.4069782 -5.7657018 0
-2.1545804 2.86267 0
16.535948 -10.886488 0
-14.76979 2.4673741 0
7.3386342 -2.4026246 0
-0.72186616 -1.1789335 0
-6.6120102 -11.152885 0
6.9032994 9.4398847 0
6.6272909 -3.8711628 0
-1.3598711 -8.2025823 0
-17.454862 -8.0090544 0
-1.2159312 1.9207477 0
5.3178966 -4.6013188 0
-8.6010319 6.7844297 0
-0.026280747 1.0690943 0
-5.3291329 9.4532113 0
8.0707692 7.2896416 0
-2.630965 13.726701 0
0.30471302 -9.4772971 0
10.422268 -9.2233134 0
7.9664458 -0.24843824 0
4.4585574 -4.8180556 0
5.3569268 3.9050902 0
-16.727756 8.2519319 0
5.3697234 -12.88427 0
2.7497031 -13.394146 0
2.1855016 -8.3174792 0
-1.3396509 -6.6111155 0
9.7782839 2.3653529 0
3.5893335 2.4962325 0
-10.07633 9.3103149 0
9.871429 -9.0337443 0
-1.8114362 7.29531 0
-18.568397 -0.35570488 0
4.0455009 4.3912585 0
1.7898756 -0.29304619 0
-1.632059 9.9640162 0
4.6062094 3.7700859 0
0.033607663 2.6158655 0
6.5359475 4.9602728 0
-4.1586448 3.0948116 0
6.5424683 10.040542 0
0.27236834 9.4619407 0
-0.042937404 -3.5902681 0
-6.8350487 -10.617899 0
-4.8755968 -3.491731 0
4.9525279 2.0445688 0
3.1682097 -5.7884065 0
-0.88549716 -14.035224 0
12.291658 -0.85601175 0
-7.269517 -0.21653475 0
-7.5477936 2.9174101 0
3.1545152 -4.2326513 0
-2.5017557 -0.91956619 0
1.1737747 7.8865717 0
3.8263109 8.9948458 0
17.830622 3.244579 0
0.12331583 8.7722893 0
-1.818914 6.77971 0
-6.7482004 1.6487847 0
-3.5290405 3.1087316 0
2.6761111 5.0346664 0
-9.7712931 -0.20447713 0
3.5088579 -4.8515729 0
0.66458176 0.79583383 0
11.388683 8.5699504 0
-6.8350545 10.617888 0
-0.54894722 3.4243787 0
10.340403 6.8088995 0
3.1933058 2.4195066 0
-9.613749 -8.4206265 0
3.7130756 -4.4787312 0
5.4182004 -18.129669 0
9.9387101 8.6268869 0
13.702337 5.252119 0
5.3431866 7.8740263 0
3.5001978 -6.8912084 0
2.8618906 3.1120491 0
5.0862915 -10.236905 0
12.269436 -21.711429 0
12.148286 -9.0948995 0
-3.7047231 5.6412035 0
7.2503228 -12.297308 0
-4.1949577 6.4746235 0
1.5668119 -6.0752772 0
0.33071541 6.7502122 0
9.2373159 -0.80096211 0
-0.39616666 -0.37492739 0
7.6639441 2.3933323 0
3.7703912 -9.5862422 0
-9.7579598 5.953737 0