# vtk DataFile Version 4.0
hesp visualization file
ASCII
DATASET UNSTRUCTURED_GRID
POINTS 1250 double
39.137678 4.8897919 4
33.37298 -4.7584508 4
33.95773 6.9778377 4
28.979804 -0.2401462 4
31.088713 4.0562232 4
31.730933 8.1547249 4
28.914616 7.0474394 4
33.793295 5.7359507 4
29.117789 9.9240616 4
33.145972 13.511062 4
25.201379 13.923997 4
33.002784 16.018411 4
33.020305 15.208617 4
34.474961 19.503916 4
30.896754 16.107895 4
31.194824 18.206121 4
26.471249 18.003675 4
30.695553 17.235985 4
31.810401 21.288865 4
29.931503 19.667862 4
33.20531 22.131133 4
35.050161 31.00098 4
34.698422 27.045846 4
34.175274 30.153764 4
29.157127 31.274681 4
31.679682 -15.919263 4
28.632588 2.1727611 4
34.202962 -6.3554753 4
36.167824 5.6546945 4
38.126114 4.9919888 4
29.585469 8.7755848 4
31.606276 2.1763184 4
28.711118 10.934094 4
30.855018 10.627639 4
29.872069 15.870149 4
33.06371 12.684792 4
28.053242 12.234657 4
29.525912 17.188391 4
28.356317 18.092679 4
29.269784 12.823709 4
34.116318 16.782498 4
33.147783 16.905172 4
31.860317 20.458832 4
28.645604 18.073173 4
28.117863 21.789935 4
29.189283 23.694145 4
34.877761 23.393351 4
34.219382 35.533626 4
31.542158 32.154492 4
31.679682 45.103276 4
31.786794 -5.8398302 4
33.225425 3.3651717 4
30.865892 9.0488381 4
32.817011 6.2563103 4
36.541641 5.3554948 4
28.702406 13.883309 4
30.572884 15.154675 4
32.64621 10.891314 4
31.197074 7.0430222 4
30.102744 10.87634 4
32.13281 10.631365 4
32.699986 13.0017 4
31.505746 15.805166 4
31.401935 16.297755 4
34.413475 17.74258 4
30.721193 17.84397 4
28.451466 19.624509 4
30.664551 20.625385 4
32.612038 19.785576 4
31.06596 20.820724 4
36.864399 22.121305 4
34.973822 27.698568 4
31.211762 27.975584 4
29.581829 25.450362 4
31.804536 35.004857 4
31.440518 -4.1088757 4
34.956573 -10.099999 4
32.54317 5.3273281 4
34.978668 3.7749146 4
27.825549 2.8238693 4
29.584811 10.543927 4
32.819075 5.8007474 4
31.567257 12.225453 4
30.262504 11.663387 4
33.223801 7.5114202 4
31.079422 10.861466 4
28.430595 12.141236 4
27.034755 11.726176 4
31.83743 14.409805 4
30.801572 15.806531 4
30.703219 18.915775 4
37.690316 16.074301 4
30.398442 21.169642 4
32.692276 25.851831 4
28.488908 25.587568 4
34.182219 27.089994 4
35.515444 23.145074 4
29.435865 27.9003 4
34.95658 39.284015 4
31.522062 33.565716 4
31.924516 9.6841492 4
32.073991 2.0799414 4
34.834931 -2.5636127 4
36.313209 -0.56711645 4
33.458597 9.7421819 4
29.796196 0.7188464 4
31.660689 8.9008009 4
34.744418 14.162532 4
34.243383 13.55124 4
31.864293 14.85765 4
33.410764 16.229151 4
37.439101 17.33438 4
33.743524 15.142744 4
30.414213 16.855011 4
28.711264 15.97243 4
33.488695 17.078372 4
32.24469 17.672943 4
30.399417 21.711394 4
31.946052 24.791295 4
29.566785 18.823152 4
26.681084 14.081322 4
31.157938 19.430636 4
35.814748 29.818662 4
33.950768 26.128118 4
35.616466 22.363136 4
30.198698 -5.5352089 4
31.234432 -9.1662433 4
32.92244 0.88261688 4
28.276647 10.990719 4
32.470916 8.8211823 4
30.722541 1.4713598 4
35.905896 7.0749172 4
36.220155 7.1370565 4
30.981196 5.3241816 4
35.632777 7.7634934 4
31.557754 12.705791 4
34.691338 12.770375 4
35.606864 8.415468 4
34.245328 16.121416 4
36.251519 19.189755 4
33.592947 18.675528 4
31.39493 18.886847 4
30.91648 19.665303 4
30.287957 22.092571 4
27.796506 26.839818 4
34.689954 24.778936 4
30.689407 26.165786 4
33.718311 21.694988 4
31.235004 38.350418 4
30.207601 34.718542 4
31.523913 0.41625629 4
35.35625 -0.49303864 4
28.008606 -2.5891907 4
34.161696 3.676122 4
26.825031 0.56375823 4
34.302494 8.556877 4
38.840761 8.9241102 4
31.359941 6.5908523 4
32.104999 10.378777 4
34.359165 11.138345 4
31.28749 14.316158 4
34.762023 17.704463 4
34.936111 16.92253 4
33.637509 12.076234 4
33.558687 16.708045 4
35.563822 17.624617 4
30.649029 22.046011 4
33.324878 19.779255 4
32.710846 24.08567 4
31.137549 23.278219 4
29.968033 24.06252 4
36.373958 21.545779 4
26.551487 31.150049 4
36.768309 24.278429 4
33.871506 30.526191 4
40.889332 -10.813335 4
31.964565 2.4884768 4
34.280854 0.62707017 4
30.577893 6.7446586 4
36.322025 5.8613382 4
31.243433 4.9322061 4
34.641928 9.3613759 4
35.556936 14.090652 4
34.59182 12.258793 4
37.479655 8.3662836 4
33.792107 11.261435 4
32.282428 13.969324 4
32.203266 14.672968 4
34.8469 16.587131 4
35.185533 12.759397 4
35.956773 16.2878 4
32.065382 21.198017 4
40.152822 22.710838 4
31.589365 19.999542 4
29.401306 19.02223 4
35.6315 28.994912 4
32.701636 26.747227 4
32.979082 26.991075 4
31.239549 25.798486 4
40.889332 39.997348 4
29.250215 1.1615256 4
29.104054 0.749968 4
34.237724 -3.3346423 4
31.587417 10.736337 4
37.973376 6.5329275 4
35.81899 3.3293803 4
32.795473 8.3361491 4
34.268422 14.43699 4
33.438971 14.605714 4
34.799975 13.689256 4
35.844052 14.908355 4
32.202539 15.079854 4
32.879647 18.904706 4
33.876615 16.498707 4
35.614038 21.887168 4
33.773147 13.601679 4
31.480381 19.411006 4
36.112302 20.243918 4
34.639855 17.034778 4
35.151716 21.013343 4
33.85844 22.884536 4
41.265883 21.622669 4
36.456526 34.425471 4
30.433167 26.620134 4
31.748783 27.514868 4
33.690424 -0.60436658 4
32.116364 -6.929708 4
31.874197 -1.4442515 4
36.04679 4.1830825 4
34.321343 7.0657221 4
34.554583 9.786917 4
36.04566 10.903517 4
33.155462 11.689595 4
39.409118 9.5161458 4
37.893773 9.324646 4
36.112423 11.370811 4
35.476901 12.973991 4
32.946185 13.184414 4
37.111403 13.71536 4
36.098394 15.187734 4
37.874457 18.171277 4
37.247926 15.966695 4
31.509953 16.60892 4
36.869272 21.795958 4
38.141284 22.839201 4
33.813064 21.10248 4
36.519223 22.722465 4
34.330209 30.905513 4
32.116377 36.113513 4
32.150044 28.464336 4
35.892792 -1.3090286 4
35.926161 2.8982911 4
39.881494 5.2817378 4
31.520119 -2.2357519 4
40.398396 2.9866329 4
39.08177 6.1350824 4
36.647733 6.5630795 4
31.208301 9.8327007 4
36.171408 4.7795584 4
35.760291 11.609096 4
32.911136 9.4407668 4
37.739966 15.148413 4
35.955015 14.093129 4
35.005861 17.829605 4
35.622118 17.300533 4
35.363816 22.060987 4
37.743252 21.700267 4
32.914495 20.119251 4
33.500975 21.104388 4
37.879857 20.696451 4
37.799505 26.475408 4
31.595488 30.501591 4
33.458294 23.144409 4
35.672105 26.629713 4
28.937644 31.451556 4
30.11824 -3.6551602 4
30.966112 -2.4058531 4
39.337193 10.531997 4
34.813806 0.81569916 4
33.79657 3.1499342 4
34.074643 2.8619742 4
33.606381 7.5518196 4
31.657223 9.3025023 4
33.301475 10.735569 4
35.305168 10.591787 4
41.592935 14.352516 4
36.800932 12.331817 4
35.123251 15.857302 4
38.374007 14.359532 4
38.032371 18.396497 4
33.795734 18.794906 4
35.665524 18.838551 4
36.613805 20.054106 4
34.256604 20.972974 4
44.591954 24.966504 4
32.659118 20.815094 4
35.472601 25.965675 4
37.788472 16.579939 4
33.065936 32.918477 4
31.723241 32.964974 4
29.39694 -2.5920628 4
31.960871 -3.6621055 4
40.594258 2.7415642 4
38.911875 6.605085 4
37.315298 4.4338028 4
39.084453 5.4364955 4
38.638502 11.002071 4
36.178165 7.3894531 4
38.176169 11.789439 4
39.690698 15.054347 4
37.031125 14.369352 4
35.23864 12.461477 4
33.983438 15.933889 4
32.994585 15.525619 4
41.023974 16.557842 4
35.989965 20.052319 4
36.070261 21.67071 4
34.948512 18.315247 4
35.486045 19.99813 4
42.46712 24.170625 4
35.77569 23.459868 4
38.489412 25.631747 4
39.96782 26.809716 4
32.18113 35.632587 4
31.318878 30.981293 4
31.290511 -4.9719463 4
32.757899 1.8385607 4
33.898845 -2.5601932 4
34.461514 5.4504306 4
36.570223 1.5669568 4
35.082845 11.713341 4
35.881903 10.476076 4
38.062584 5.8080803 4
37.012035 10.223205 4
35.657942 11.057619 4
38.154728 12.15971 4
37.657275 12.175492 4
40.406411 16.147748 4
38.219981 16.075637 4
36.59918 15.501777 4
38.303426 20.423215 4
37.537396 18.813138 4
37.317588 18.140741 4
34.736328 18.12019 4
38.792355 20.623851 4
38.844804 25.811896 4
34.484106 29.492153 4
34.553892 32.378309 4
35.259407 31.747103 4
31.723078 32.698414 4
35.214564 -5.1619948 4
31.219201 -0.40683498 4
37.017005 1.8866298 4
38.253602 3.6459522 4
34.755808 1.3198411 4
34.324037 6.3366917 4
34.998187 7.1779771 4
39.631257 7.9425364 4
39.359058 10.95845 4
37.739395 14.639591 4
37.323979 12.451338 4
39.484485 16.25195 4
41.056834 10.623055 4
40.11878 10.890617 4
37.097978 17.085605 4
39.118293 14.648408 4
37.942083 14.84 4
39.808341 16.527616 4
34.813128 20.682299 4
39.492068 21.561552 4
37.798512 23.103037 4
34.866703 24.316647 4
32.301679 27.181234 4
31.917231 30.466251 4
35.173273 32.478761 4
36.724136 -3.4036021 4
36.874928 2.5847813 4
37.402048 8.0805478 4
35.856317 0.3280503 4
38.651061 9.3665625 4
37.582288 5.120473 4
38.064558 8.6098576 4
39.632737 9.3323636 4
39.523116 8.5440834 4
42.035513 9.3917793 4
41.377964 12.014316 4
37.748734 11.469096 4
35.349967 14.756919 4
37.51134 17.013648 4
40.703967 14.341208 4
42.325764 15.978472 4
38.554105 19.135413 4
38.88252 19.937211 4
39.216085 21.591427 4
39.432883 19.285739 4
37.75894 24.255822 4
35.983331 26.253115 4
39.797883 26.414783 4
35.673949 24.166278 4
36.46549 32.924601 4
37.105039 -3.1377587 4
38.124266 5.2933669 4
37.444445 1.0619779 4
41.364568 6.0896841 4
36.82769 3.6945239 4
37.626898 6.73365 4
39.13638 7.9346045 4
37.935076 10.305894 4
37.236969 9.9550369 4
38.774297 11.523689 4
39.122421 12.710008 4
37.909551 14.29194 4
35.967993 12.504289 4
39.761432 18.52678 4
39.953441 17.541533 4
38.02806 17.869778 4
38.075754 19.05757 4
40.851103 18.297458 4
41.594465 21.048839 4
34.946062 23.10223 4
38.336896 23.006829 4
44.505147 23.594148 4
41.060262 30.901475 4
36.859093 26.256805 4
33.512758 33.096844 4
35.264443 -0.87028145 4
32.422811 1.2092117 4
36.112073 1.7528075 4
34.360813 5.8115844 4
36.117699 10.243139 4
38.067533 8.1109729 4
41.331263 4.9805433 4
42.313306 5.1714053 4
38.994493 10.425523 4
41.196979 12.749982 4
40.509414 9.8005421 4
38.94171 13.732131 4
43.461441 11.902556 4
37.653969 17.44511 4
38.773371 16.458102 4
39.218961 18.274837 4
42.508529 19.066325 4
40.011879 20.119532 4
39.981885 19.649743 4
36.772294 22.760541 4
38.041186 23.231219 4
35.912803 25.814007 4
36.497511 28.000456 4
37.288416 29.102973 4
34.381417 28.440793 4
33.792584 -0.95724727 4
37.174233 -4.6969566 4
[...]
POINT_DATA 1250
SCALARS m double
LOOKUP_TABLE default
1
1
1
1
1
1
1
1
1
1
1
1
1
1
1
1
1
1
1
1
1
1
1
1
1
1
1
1
1
1
1
1
1
1
1
1
1
1
1
1
1
1
1
1
1
1
1
1
1
1
1
1
1
1
1
1
1
1
1
1
1
1
1
1
1
1
1
1
1
1
1
1
1
1
1
1
1
1
1
1
1
1
1
1
1
1
1
1
1
1
1
1
1
1
1
1
1
1
1
1
1
1
1
1
1
1
1
1
1
1
1
1
1
1
1
1
1
1
1
1
1
1
1
1
1
1
1
1
1
1
1
1
1
1
1
1
1
1
1
1
1
1
1
1
1
1
1
1
1
1
1
1
1
1
1
1
1
1
1
1
1
1
1
1
1
1
1
1
1
1
1
1
1
1
1
1
1
1
1
1
1
1
1
1
1
1
1
1
1
1
1
1
1
1
1
1
1
1
1
1
1
1
1
1
1
1
1
1
1
1
1
1
1
1
1
1
1
1
1
1
1
1
1
1
1
1
1
1
1
1
1
1
1
1
1
1
1
1
1
1
1
1
1
1
1
1
1
1
1
1
1
1
1
1
1
1
1
1
1
1
1
1
1
1
1
1
1
1
1
1
1
1
1
1
1
1
1
1
1
1
1
1
1
1
1
1
1
1
1
1
1
1
1
1
1
1
1
1
1
1
1
1
1
1
1
1
1
1
1
1
1
1
1
1
1
1
1
1
1
1
1
1
1
1
1
1
1
1
1
1
1
1
1
1
1
1
1
1
1
1
1
1
1
1
1
1
1
1
1
1
1
1
1
1
1
1
1
1
1
1
1
1
1
1
1
1
1
1
1
1
1
1
1
1
1
1
1
1
1
1
1
1
1
1
1
1
1
1
1
1
1
1
1
1
1
1
1
1
1
1
1
1
1
1
1
1
1
1
1
1
1
1
1
1
1
1
1
1
1
1
1
1
1
1
1
1
1
1
1
1
1
1
1
1
1
1
1
1
1
1
1
1
1
1
1
1
1
1
1
1
1
1
1
1
1
1
1
1
1
1
1
1
1
1
1
1
1
1
1
1
1
1
1
1
1
1
1
1
1
1
1
1
1
1
1
1
1
1
1
1
1
1
1
1
1
1
1
1
1
1
1
1
1
1
1
1
1
1
1
1
1
1
1
1
1
1
1
1
1
1
1
1
1
1
1
1
1
1
1
1
1
1
1
1
1
1
1
1
1
1
1
1
1
1
1
1
1
1
1
1
1
1
1
1
1
1
1
1
1
1
1
1
1
1
1
1
1
1
1
1
1
1
1
1
1
1
1
1
1
1
1
1
1
1
1
1
1
1
1
1
1
1
1
1
1
1
1
1
1
1
1
1
1
1
1
1
1
1
1
1
1
1
1
1
1
1
1
1
1
1
1
1
1
1
1
1
1
1
1
1
1
1
1
1
1
1
1
1
1
1
1
1
1
1
1
1
1
1
1
1
1
1
1
1
1
1
1
1
1
1
1
1
1
1
1
1
1
1
1
1
1
1
1
1
1
1
1
1
1
1
1
1
1
1
1
1
1
1
1
1
1
1
1
1
1
1
1
1
1
1
1
1
1
1
1
1
1
1
1
1
1
1
1
1
1
1
1
1
1
1
1
1
1
1
1
1
1
1
1
1
1
1
1
1
1
1
1
1
1
1
1
1
1
1
1
1
1
1
1
1
1
1
1
1
1
1
1
1
1
1
1
1
1
1
1
1
1
1
1
1
1
1
1
1
1
1
1
1
1
1
1
1
1
1
1
1
1
1
1
1
1
1
1
1
1
1
1
1
1
1
1
1
1
1
1
1
1
1
1
1
1
1
1
1
1
1
1
1
1
1
1
1
1
1
1
1
1
1
1
1
1
1
1
1
1
1
1
1
1
1
1
1
1
1
1
1
1
1
1
1
1
1
1
1
1
1
1
1
1
1
1
1
1
1
1
1
1
1
1
1
1
1
1
1
1
1
1
1
1
1
1
1
1
1
1
1
1
1
1
1
1
1
1
1
1
1
1
1
1
1
1
1
1
1
1
1
1
1
1
1
1
1
1
1
1
1
1
1
1
1
1
1
1
1
1
1
1
1
1
1
1
1
1
1
1
1
1
1
1
1
1
1
1
1
1
1
1
1
1
1
1
1
1
1
1
1
1
1
1
1
1
1
1
1
1
1
1
1
1
1
1
1
1
1
1
1
1
1
1
1
1
1
1
1
1
1
1
1
1
1
1
1
1
1
1
1
1
1
1
1
1
1
1
1
1
1
1
1
1
1
1
1
1
1
1
1
1
1
1
1
1
1
1
1
1
1
1
1
1
1
1
1
1
1
1
1
1
1
1
1
1
1
1
1
1
1
1
1
1
1
1
1
1
1
1
1
1
1
1
1
1
1
1
1
1
1
1
1
1
1
1
1
1
1
1
1
1
1
1
1
1
1
1
1
1
1
1
1
1
1
1
1
1
1
1
1
1
1
1
1
1
1
1
1
1
1
1
1
1
1
1
1
1
1
1
1
1
1
1
1
1
1
1
1
1
1
1
1
1
1
1
1
1
1
1
1
1
1
1
1
1
1
1
1
1
1
1
1
1
1
1
1
1
1
1
1
1
1
1
1
1
1
1
1
1
1
1
1
1
1
1
1
1
1
1
1
1
1
1
1
1
1
1
1
1
1
1
1
1
1
1
1
1
1
1
1
1
1
1
1
1
1
1
1
1
1
1
1
1
1
1
1
1
1
1
1
1
1
1
1
1
1
1
1
1
1
1
1
1
1
1
1
1
1
1
1
1
1
1
1
1
1
1
1
1
1
1
1
1
1
VECTORS v double
5.3171978 -8.1458078 0
4.5427317 -10.037515 0
-4.1984276 3.1268969 0
8.8672953 -3.3643513 0
5.4968198 -6.0000834 0
4.7902902 -5.4786144 0
4.059475 2.402777 0
-0.64743063 -2.0444092 0
-0.5429202 -2.8847091 0
2.3595872 -4.8757081 0
-8.2830345 4.3957168 0
-0.87623564 4.3045979 0
-1.4424487 10.564058 0
-11.475367 2.6425139 0
1.0703773 -5.4769024 0
-12.218717 -1.4632288 0
7.0763341 -0.054739083 0
-5.5033237 15.295878 0
0.70170163 -2.016955 0
-0.53662766 -2.3153168 0
19.235631 0.1781573 0
-3.8420073 10.934063 0
-4.6349959 9.6045711 0
-0.12055171 0.89928571 0
-3.6065542 9.7847982 0
2.6309649 -13.726701 0
-9.2312471 4.4658703 0
5.3671335 -9.5902238 0
-2.2762358 -2.2288727 0
5.2559808 1.1135069 0
6.5939494 2.9195659 0
8.9009329 -7.4285114 0
-6.9618968 2.9134669 0
-7.383294 12.622017 0
2.3782539 6.1869465 0
-2.3380846 -2.1438517 0
0.93784179 -1.3199332 0
-1.0620586 -2.9014332 0
-3.5981235 0.54896764 0
6.6340497 8.9814937 0
-2.5524583 -4.3062711 0
-7.5141394 -0.7846876 0
-6.9688556 7.3727811 0
-3.49219 -5.8194023 0
-10.872129 4.7025595 0
-8.47097 4.3123728 0
-12.883052 11.597294 0
5.388417 9.5854578 0
-4.3373683 10.986281 0
2.630965 13.726701 0
-0.30255109 -9.4876494 0
-4.5607227 -3.6043784 0
3.7142127 5.6821148 0
-10.880237 4.2200947 0
2.9475011 -6.1915456 0
-6.1732941 14.621775 0
2.8788041 8.7656527 0
-18.129771 5.5069245 0
2.3777129 0.26701468 0
1.2459419 -26.834979 0
3.6998883 1.1442493 0
5.6665055 -1.3652176 0
-2.1768984 8.1613191 0
19.432018 -1.58484 0
-11.24204 2.2037552 0
-6.2623805 -0.80943805 0
-12.69868 -7.0305845 0
-3.0290907 13.42482 0
-12.389342 0.79045966 0
2.7776219 7.1543102 0
1.5551617 14.459128 0
-2.3162885 7.748192 0
-9.4505023 2.6470238 0
-7.0797404 11.288654 0
-0.1887674 9.4785768 0
-0.23113082 -3.6199104 0
6.8350487 -10.617898 0
5.6289692 -1.7562896 0
11.122723 -2.1323992 0
-0.070556313 -0.21798151 0
4.7957863 -3.9690862 0
-3.3113144 -3.4944752 0
11.465207 -4.7066854 0
5.5005733 -13.77 0
-3.4817015 -9.6756198 0
-8.2666152 -5.8836874 0
1.4627058 -1.9672381 0
-7.0384654 -6.2631364 0
5.9685623 -8.2038204 0
4.4696407 12.02188 0
0.024559435 -9.1201575 0
10.632718 -18.155495 0
-5.5302327 10.067446 0
0.74114721 9.9989136 0
-5.5978923 1.0448125 0
1.9685079 8.2513382 0
8.1882205 -6.8524668 0
-4.3927819 6.8964684 0
6.8350551 10.617903 0
1.3925777 8.8865454 0
3.3065473 1.8159293 0
-9.9296695 -7.4929693 0
-4.183696 -6.8546496 0
-6.0742924 -10.907111 0
4.1665391 -1.7840775 0
4.0840212 -2.0340682 0
4.3132755 -8.0761141 0
-0.73614688 0.15385792 0
0.60764255 7.8947026 0
-5.579211 -7.3645413 0
1.6181945 0.69921614 0
2.6175095 -6.7052518 0
1.5236987 -1.5515012 0
8.2524079 4.392033 0
3.1450214 10.505865 0
-0.84582722 5.72114 0
8.5661897 -4.6961003 0
-1.7219678 5.3575087 0
2.0292958 3.4260937 0
0.082222593 5.2157461 0
-9.0210025 -14.233017 0
-3.298776 7.9577932 0
9.619137 -1.0608476 0
-2.8307188 9.20293 0
-0.1584365 9.5716486 0
1.142153 -6.3419592 0
-1.9959863 -10.927607 0
5.4275745 0.35850562 0
-7.0172182 -20.462646 0
11.915407 -0.093988809 0
-2.3082874 -12.463708 0
-2.2694787 3.7819238 0
5.062204 -9.787387 0
-7.1451854 -3.626047 0
3.1142262 -1.7473855 0
2.4531065 4.4359829 0
-4.2040732 6.3976152 0
15.372633 -6.2834043 0
5.4556831 -6.3438246 0
1.9976019 3.6999867 0
-3.5860078 2.0567342 0
-0.83511992 -9.1224884 0
1.8732275 -8.4587831 0
-5.015354 4.1305709 0
-15.697129 6.4853023 0
2.9184709 5.4457161 0
2.479938 -2.205756 0
-2.1070168 0.92424087 0
-1.9953978 10.927776 0
1.3111706 6.3268373 0
-9.0873394 -3.3942417 0
-5.7112107 -8.4942428 0
-0.44665131 -8.8551593 0
1.2282768 -13.140167 0
-5.8194874 -4.8232844 0
-1.7993007 -2.5447556 0
15.636627 -4.9402102 0
-3.0065821 -9.0674434 0
-10.953564 -14.149369 0
0.23115746 1.4830556 0
-6.7631355 2.8499894 0
15.698409 2.3602083 0
-13.944084 -2.8986984 0
-7.1571144 0.10139912 0
-3.4096867 -2.8763539 0
-1.5345612 0.99825563 0
-2.8638441 4.7642405 0
-6.7485657 8.1066371 0
-1.7426146 9.2372797 0
16.741517 14.624013 0
-1.2302962 -4.617358 0
6.4808206 -3.333844 0
-6.963626 7.2248838 0
-8.3233797 3.08635 0
6.4676104 1.2566273 0
4.8370531 -9.9977527 0
-2.3417173 0.019054846 0
2.4091956 -18.604834 0
4.0235724 8.9655915 0
4.8683175 -6.5160284 0
0.59728634 -1.9968999 0
13.163962 -5.7043883 0
-6.1631859 9.1909395 0
0.46010014 8.069243 0
8.0469136 -6.7731752 0
-2.19181 -0.46222274 0
-4.5528455 -8.6462402 0
-12.566372 -5.2537948 0
-1.8632804 -1.0887081 0
-7.4888412 -1.6312784 0
7.1421385 2.0418553 0
-13.097837 4.7773275 0
-0.81185187 13.478741 0
-9.445764 3.926941 0
-8.8646173 -2.2493568 0
3.1125806 4.5823197 0
-0.79587375 7.9596121 0
-8.5505119 -2.5029087 0
1.2684827 -2.0201177 0
4.8370532 9.9977527 0
2.8958956 -4.0634289 0
8.572914 -12.422498 0
-5.5713283 -7.3581428 0
-5.317303 11.411759 0
1.4200031 3.9482854 0
0.73450649 -0.48050355 0
0.61481052 8.8914903 0
1.7254664 3.0041114 0
-1.0258893 7.8256677 0
4.6530853 11.376937 0
-5.3296568 -10.006057 0
-9.0045998 1.1918037 0
-10.950972 -3.5460771 0
12.05788 9.3290279 0
-2.7289819 11.956517 0
-11.526347 -9.0574881 0
-7.1028863 7.7345038 0
-0.26009845 4.4204151 0
9.698668 2.230378 0
-1.6100158 -5.7619751 0
-6.9237946 8.7751491 0
8.075632 -4.581958 0
-1.1869203 12.286133 0
-1.1098705 9.3953856 0
4.537105 2.3137511 0
-2.4086485 2.9080729 0
-3.9329067 -8.2529136 0
-8.2351303 -10.294229 0
-12.774107 -8.0712647 0
-3.287487 -1.6009855 0
-4.3683882 5.8346539 0
-9.9683845 4.2582152 0
-1.1812618 6.0988661 0
-4.0357347 1.0021135 0
-2.919948 -0.62936934 0
7.5291106 -0.39323432 0
-6.7092659 4.0449917 0
-0.74502453 -10.563366 0
-9.0391546 -14.891094 0
-10.158582 -5.4501181 0
-1.9989423 -1.7373993 0
13.142261 -12.870388 0
-1.2681687 -14.020889 0
2.6922108 -13.126345 0
3.3533557 4.6275034 0
-6.7916379 0.35077491 0
-8.5555829 0.3169589 0
-3.8776677 17.221856 0
-3.9308517 8.2305252 0
-2.7377176 -2.1129312 0
11.523956 -2.129878 0
1.7361295 -5.3013829 0
6.5753167 -0.28547483 0
-2.2899373 -13.299069 0
-4.0029388 -7.7857095 0
-7.6408353 3.6174174 0
3.1356593 1.305087 0
-18.305256 -1.4465388 0
-9.0164158 1.8046001 0
-2.2665401 3.0532887 0
-1.7432434 -11.978083 0
6.5863817 18.177434 0
-13.395457 5.1643694 0
-0.81779433 -7.7261399 0
10.743975 0.30241708 0
-10.112107 1.7710993 0
-2.2793443 0.66476063 0
5.1743784 4.8896912 0
-12.235818 1.0461903 0
-3.853122 7.1586596 0
7.3831706 -0.97055985 0
-4.4885706 5.7872492 0
-1.1987845 -5.4095316 0
-7.2179608 4.4201776 0
5.9667428 1.3563106 0
-8.9612617 -6.6407586 0
-7.452789 -4.5216967 0
8.5165605 -6.3740348 0
-5.8187893 -11.588444 0
-4.6547062 7.0670749 0
-3.3906535 -13.858883 0
-8.0027192 0.41281411 0
-5.7376686 7.4761688 0
-0.071679632 0.41486872 0
-6.4275258 4.3973894 0
16.255479 4.2844268 0
2.4111779 8.7964004 0
17.581791 7.4967146 0
-0.79442645 -4.9480998 0
2.9605853 -0.81821399 0
14.591041 -0.60836398 0
6.9517485 5.4761643 0
-2.8662954 2.0695782 0
0.52599085 -0.34262749 0
10.033967 6.1798378 0
-9.4973073 13.678433 0
-5.4950992 -2.0852639 0
7.7735406 4.1542859 0
0.16095572 9.3477277 0
6.569188 2.9198685 0
7.3674084 -5.8928472 0
8.0397927 -7.0387105 0
-11.550396 6.7440522 0
1.2153641 0.63935645 0
-2.6879811 -2.4184592 0
0.033521904 -8.2575702 0
-1.2308782 -0.90751703 0
4.5057741 -13.438097 0
1.5915797 10.551506 0
12.083509 11.003243 0
-1.2980564 0.56001753 0
9.6557249 -1.3391761 0
-11.936753 2.8373451 0
-5.9347459 5.7406385 0
-7.4893436 6.5338072 0
4.2285809 -1.3247737 0
13.413243 13.512359 0
-11.706653 4.2267428 0
-5.6901217 6.9385192 0
9.9613413 4.3322981 0
-6.5248541 -5.149358 0
1.7021516 3.8574346 0
-5.3524513 2.7293431 0
-2.4634889 17.71892 0
6.6640113 16.57028 0
2.1600798 -14.006636 0
-8.913953 -0.62478007 0
-4.1206882 -9.033774 0
4.3580335 -3.8701603 0
-6.3141439 -7.3141086 0
-8.2611253 10.928126 0
-11.925222 6.9965953 0
4.77686 7.4537791 0
-4.2968748 -4.214046 0
-12.164013 -4.7403949 0
-11.696543 0.72797616 0
3.7194732 -4.7625348 0
8.8132071 2.4953681 0
-8.3548886 -10.332039 0
3.8326268 4.5830897 0
-4.5028508 1.7780575 0
-5.2333972 2.2463004 0
5.7856567 -2.4740168 0
-6.691145 6.9389499 0
8.9420101 10.492213 0
2.3935657 4.0509292 0
-3.0472983 9.9276415 0
-11.721454 14.538148 0
0.7114848 8.790812 0
-4.0193219 9.6081509 0
-3.1177961 -11.672382 0
-8.876389 -3.6300211 0
-4.4575107 -10.51474 0
-6.665702 -9.2761616 0
-12.595934 -1.9761633 0
-11.75697 -1.9887219 0
-6.0962246 7.3271092 0
1.045114 -3.6166495 0
-2.1955227 15.60384 0
-0.43884189 -0.64210756 0
-0.80830735 0.6918637 0
-16.017323 -9.2639183 0
13.19086 -3.422429 0
3.1667856 -10.53851 0
-1.926543 4.8466433 0
23.415222 -3.6722545 0
-2.1285211 2.9967255 0
8.6051092 -0.3958721 0
2.243969 -2.9470432 0
5.0685482 1.4655031 0
4.7399796 3.1051102 0
-2.9281652 1.179038 0
-9.588477 0.70964311 0
-5.3078995 8.2957602 0
2.540649 12.611311 0
-1.5893721 -6.751188 0
-0.15208508 -6.0300227 0
-3.8531508 4.5228558 0
-6.1464314 -4.1815711 0
-8.0696933 -11.781278 0
2.9723248 -1.4427923 0
-6.9686374 2.2563998 0
7.8065634 -3.3641569 0
-11.914154 -0.03042111 0
5.7672752 -2.5367329 0
6.1230729 -0.96669774 0
-7.6190666 1.1544897 0
-13.653331 3.8546054 0
12.775532 1.9186731 0
10.062802 -4.8808784 0
9.63979 -7.2217796 0
-6.9041981 -2.1444252 0
6.0859707 -15.02636 0
9.3208762 -2.2340408 0
8.7128776 -9.5345124 0
1.7983908 -0.10820534 0
-0.038292827 0.43123721 0
-5.8250889 10.566225 0
-5.8829718 3.023308 0
-2.2965543 7.6065096 0
10.200837 -11.205097 0
5.6462212 -4.455705 0
-11.526384 -2.8838138 0
-7.5356685 -3.7234073 0
-2.8235158 -2.5523345 0
-4.516577 -4.3585287 0
-2.5275851 -2.075708 0
-3.1270095 7.5386551 0
-9.5275469 -0.71524003 0
4.0543262 2.4843779 0
-1.4727283 -2.5046833 0
-10.255324 -1.4469735 0
-4.1653057 -12.623387 0
-3.4004717 -0.31600524 0
-13.495531 -0.92137453 0
-10.350165 -0.18771508 0
1.6233369 10.25583 0
-2.3332882 -8.4239389 0
6.0067268 4.8442446 0
-13.775627 -2.1113097 0
-3.9186013 8.894163 0
4.7785396 -2.4500387 0
-1.9345471 9.3928058 0
-3.2596569 1.2395163 0
-8.6165163 13.461812 0
-6.3192445 -4.5147945 0
-12.05971 1.7484894 0
-8.414558 -4.4113022 0
-11.486865 -13.35632 0
0.55984425 -0.45991007 0
-8.4794842 3.5416831 0
1.4024105 -7.2896757 0
-2.8298566 -5.4524379 0
-0.78491026 12.655057 0
-3.8970682 11.367481 0
-10.867042 -6.9070374 0
-4.4655994 4.8718365 0
6.8682769 -5.3375095 0
-2.4386482 7.5758273 0
3.9052327 2.4102417 0
-10.249187 0.18826678 0
9.7464171 5.7458817 0
-3.7947257 -0.11886747 0
2.5403455 -4.3373333 0
-1.5162991 -7.824805 0
7.5551861 4.6385812 0
-7.7939624 1.0059864 0
-3.4287842 3.5464061 0
6.2484591 1.8487857 0
-9.7202312 -2.1724693 0
-7.6489064 -13.447578 0
-6.4497109 -10.207175 0
-9.3381995 -5.3397749 0
7.3344766 0.78424048 0
8.4008003 -2.1463216 0
-2.3243357 -10.661345 0
-6.6113168 -6.6561724 0
-5.2871757 -8.521028 0
-7.0254419 8.8047276 0
-1.1091515 -0.27129717 0
-6.971118 5.2712367 0
-2.5171593 -2.5161546 0
4.2400009 7.2856039 0
-9.5636189 3.6662909 0
-2.9365683 -0.32161682 0
-2.8644352 10.082685 0
-14.030334 -3.6495472 0
-0.67682912 -0.48787571 0
4.5220559 -0.043262803 0
-6.8253443 3.7753843 0
-11.360571 1.6950899 0
4.4226376 3.960294 0
5.3736525 -1.7207999 0
-6.7223461 10.489202 0
6.2367666 10.046331 0
-7.4999752 3.8201733 0
-2.3770202 0.2311838 0
-7.2253442 -5.9367721 0
-7.0964766 -5.95093 0
8.2637031 -7.9403701 0
-8.9634326 -6.9968391 0
-0.93521636 -8.8992929 0
6.124679 0.60257152 0
-9.6855607 -13.320442 0
6.5331183 12.806378 0
-9.4560374 11.896261 0
-2.6551132 -5.8695745 0
-2.5288395 -2.5072652 0
-5.5407329 -7.4496347 0
3.297135 -7.1953408 0
15.38616 -10.428463 0
-3.7806232 -11.589599 0
-6.7893164 6.1180109 0
1.4017907 7.3189303 0
-11.814405 0.0002302966 0
-11.234311 1.0697863 0
-5.7396897 -4.1465231 0
-9.3727447 -3.6151189 0
-10.204335 -0.12217374 0
-10.363517 0.62548648 0
-3.2146809 -9.7966809 0
1.0668233 5.6079192 0
9.7275849 5.0692933 0
-2.5793706 -9.062034 0
-3.8352849 8.5788934 0
2.3505629 -4.7926186 0
-0.66326195 -7.1548493 0
-10.240472 -5.4978509 0
8.6324628 -4.4552316 0
9.9517558 0.17925567 0
-1.425952 5.9876816 0
-0.63551821 1.4297902 0
15.028931 2.4898314 0
0.93960259 -2.831777 0
-10.47462 -4.6709997 0
9.9794173 -0.12479626 0
13.501202 -7.0348899 0
-6.5038829 -4.151174 0
1.3071898 5.3393423 0
-0.51238195 10.543382 0
4.5769243 10.147248 0
-4.8947164 4.0587874 0
-7.9551829 6.9155525 0
-9.9211489 -0.27947495 0
-9.9950271 -0.085711327 0
-10.044985 0.046261527 0
-1.5087667 3.8758208 0
-14.048105 -3.4099276 0
12.696216 8.230359 0
-7.2309889 -3.1175805 0
3.6923702 7.6222994 0
6.7361981 -1.5534658 0
9.0060887 5.1679842 0
9.502102 -0.14585543 0
9.9976093 -0.0027898998 0
9.9960169 -0.21568882 0
3.0729555 -10.742732 0
-12.765262 -3.3503136 0
7.141055 0.2451996 0
9.9938457 -0.27023568 0
9.9946766 0.0053243021 0
4.784036 -3.8500322 0
9.751708 -3.1710431 0
-9.5354958 6.348225 0
-5.6356834 6.2495591 0
-2.9037998 -3.2972932 0
-8.8832921 1.2273075 0
2.4247147 -1.7188548 0
-10.194666 0.12588561 0
-9.4076154 5.2515664 0
-10.126609 0.10834778 0
-10.209592 -0.42098578 0
-2.9119009 6.4709729 0
-7.9976022 4.9072846 0
3.2469485 7.180195 0
1.1339992 -0.80274593 0
8.5753098 9.2826949 0
9.7675756 -0.087701937 0
9.973219 -0.0048414039 0
9.9992621 -0.00038788045 0
9.9997697 0.00086922873 0
10.001592 -0.0039589985 0
-10.219638 0.20357972 0
10.000881 0.033201883 0
9.9997828 0.0013819106 0
9.9995478 7.7347108e-05 0
9.9973057 0.0012305672 0
9.8662489 0.060188217 0
11.637498 -2.2707778 0
-4.2669025 -5.2162873 0
-0.58746885 0.4846618 0
-6.6784116 2.3999099 0
-5.8254112 7.5561541 0
-7.2891133 1.4077143 0
-12.071826 3.343181 0
-6.5703178 -8.4618393 0
-3.8847676 -7.6476501 0
-7.3328862 2.1195704 0
3.8024324 -2.8809988 0
-4.9820939 -2.1158349 0
9.9013634 -1.1996822 0
5.7784236 4.8843415 0
9.9982701 -0.0047203531 0
10.000426 -2.9113002e-05 0
10.000464 -3.2884873e-06 0
10.000478 -4.4482868e-07 0
10.000692 7.4248117e-05 0
10.003473 -0.0012235084 0
10.000687 0.00048087768 0
10.000474 -3.4031784e-06 0
10.000476 5.1875821e-07 0
10.000449 4.035968e-05 0
9.9842096 0.023314483 0
6.5933336 -6.1229424 0
9.9287579 1.2255937 0
-4.4144941 2.5471816 0
1.3269725 8.4325315 0
-10.193771 0.04036248 0
-10.078346 -0.1979815 0
-10.000996 -0.015380088 0
-10.022381 0.035699896 0
-9.8478888 -0.3747598 0
-10.346425 0.23558647 0
-2.6283558 -6.0555289 0
11.482059 1.2827295 0
9.8372533 -0.062444416 0
9.9875148 -0.0017449355 0
9.9939036 -0.0001024246 0
9.9939823 -4.6818361e-06 0
9.9939852 1.8441969e-09 0
9.9939852 -8.8684383e-09 0
9.9939846 3.6259377e-07 0
9.994004 -7.4874465e-07 0
9.993985 2.4728387e-07 0
9.9939851 -4.3069966e-08 0
9.9939852 -1.618402e-09 0
9.9939812 5.141745e-06 0
9.9939039 6.7667691e-05 0
9.991 0.001275998 0
9.8747277 0.050157227 0
10.40797 -0.22784399 0
-12.132973 2.8392219 0
-9.9719473 -0.18699236 0
-10.015227 -8.9591451e-05 0
-10.014125 -0.014118346 0
-3.4865136 7.0877102 0
-5.8051287 -5.0546588 0
-4.3642099 -11.55647 0
-4.0135334 -0.22457771 0
-2.7121732 -16.981072 0
-13.613515 -6.5786423 0
3.3486068 3.3903475 0
0.22038058 0.95539287 0
0.97217017 8.9822519 0
-17.815081 -2.8965693 0
1.7897255 11.544967 0
-14.00504 -9.1068541 0
-2.7837551 -20.043427 0
5.8130374 3.7115548 0
-2.2160548 2.9039899 0
-10.20041 -7.7935044 0
0.35193253 2.249228 0
4.2883303 5.821699 0
7.7262366 2.5983753 0
-0.30233932 -2.1823481 0
0.27534821 -2.8228053 0
1.8063674 14.347359 0
-5.5881933 0.36310593 0
-6.5003915 -4.4271114 0
3.7029027 13.668216 0
-2.6309649 -13.726701 0
-0.89695797 -11.224742 0
-5.3659426 -9.6141966 0
8.641782 2.51612 0
-4.4150484 0.78977094 0
6.3843723 5.3317542 0
2.4753254 0.82602855 0
-0.17557317 8.7206006 0
-2.0599924 3.0671556 0
16.535071 -10.890959 0
-14.792154 2.4759644 0
7.3530236 -2.3886832 0
-0.71883214 -1.2138962 0
-6.596309 -11.261197 0
7.8459731 -7.0948173 0
1.9032835 5.6712258 0
-8.9071702 -7.4900268 0
-17.460491 -7.9886482 0
4.538127 1.7709784 0
5.4301747 -4.4744924 0
-8.6048308 6.785854 0
-0.02199694 1.0685964 0
-8.2436195 11.964508 0
8.0902148 7.2984222 0
-2.630965 13.726701 0
0.30485983 -9.4774893 0
-5.7319479 0.28187451 0
7.9687083 -0.2449346 0
-4.6676062 -16.385456 0
5.4242306 3.9940287 0
-1.95219 -5.1652273 0
5.2634446 -12.914062 0
2.7330526 -13.420314 0
-3.7627193 -5.4453773 0
0.34949101 -4.7926034 0
9.7518838 2.3240542 0
11.934092 1.6320355 0
-10.040386 9.4450036 0
9.8871449 -9.0596392 0
-8.4684232 6.2824626 0
-18.561382 -0.40163156 0
9.4170815 8.0634093 0
1.7893455 -0.31081416 0
-1.6207434 9.9685332 0
9.283883 -1.4872717 0
0.030748631 2.6146236 0
6.531448 4.9467192 0
-4.1527356 3.1064449 0
-8.435143 -1.8708651 0
0.27243059 9.46189 0
-0.040696309 -3.5887749 0
-6.8350487 -10.617899 0
-4.9771772 -3.5157173 0
-4.6526341 -10.499802 0
3.1718625 -5.7574178 0
5.558221 -13.108248 0
13.219442 -13.020941 0
-2.6285262 -4.858794 0
-7.5361081 2.7283255 0
3.1870168 -4.2038566 0
-2.4830147 -0.86354919 0
1.6874746 8.8507303 0
3.9410281 15.173856 0
17.628933 3.0447215 0
-3.1030851 12.530725 0
-1.9609905 6.7529178 0
8.8460699 -4.7355276 0
-3.2702519 3.1331736 0
2.5993391 5.1088641 0
-9.8626849 -0.29202258 0
3.6800481 -4.9452136 0
0.66304236 0.79284322 0
11.386611 8.5701449 0
-6.8350545 10.617888 0
-0.51158266 3.4805782 0
10.339148 6.8249237 0
-5.142207 1.8911901 0
-8.8113214 -8.0297729 0
5.0779399 -5.7250216 0
5.4279116 -18.138145 0
9.8768554 8.6095417 0
10.632928 -2.8522769 0
5.3216464 7.7361469 0
3.6209012 -6.8741126 0
-6.0883043 6.7563138 0
5.2428316 -10.303141 0
5.653977 -5.27954 0
12.1419 -9.1414508 0
-16.503315 0.39320718 0
14.347939 0.35234512 0
2.7758167 7.3571094 0
3.5305948 -5.5214111 0
0.31696908 6.8208348 0
9.2118321 -0.84249417 0
-3.6680309 5.4638369 0
7.670343 2.3879031 0
11.220038 -9.009679 0
-9.7579514 5.9537431 0
1.1012003 8.7447545 0
-1.7593593 -1.9364708 0