# vtk DataFile Version 4.0
hesp visualization file
ASCII
DATASET UNSTRUCTURED_GRID
POINTS 32 double
-4.5504906 0.009504753 4
-6.1870882 2.2781885 4
-6.1870882 3.3341217 4
-4.5504906 5.6028055 4
-5.037666 -3.638685 4
-3.1561765 1.6442166 4
-3.1561765 3.9680936 4
-5.037666 9.2509952 4
2.6560042 -7.9691518 4
-0.66759369 -1.6699848 4
-0.66759369 7.282295 4
2.6560042 13.581462 4
7.0548237 -7.9035694 4
8.6175749 0.91739751 4
8.6175749 4.6949127 4
7.0548237 13.51588 4
14.557487 -7.9035694 4
12.994735 0.91739751 4
12.994735 4.6949127 4
14.557487 13.51588 4
18.956306 -7.9691518 4
22.279904 -1.6699848 4
22.279904 7.282295 4
18.956306 13.581462 4
26.649976 -3.638685 4
24.768487 1.6442166 4
24.768487 3.9680936 4
26.649976 9.2509952 4
26.162801 0.009504753 4
27.799398 2.2781885 4
27.799398 3.3341217 4
26.162801 5.6028055 4
CELLS 0 0
CELL_TYPES 0
POINT_DATA 32
SCALARS m double
LOOKUP_TABLE default
1
1
1
1
1
1
1
1
1
1
1
1
1
1
1
1
1
1
1
1
1
1
1
1
1
1
1
1
1
1
1
1
VECTORS v double
-10.511509 -1.1292339 0
-11.908477 -0.32445606 0
-11.908477 0.32445606 0
-10.511509 1.1292339 0
-12.473146 -4.5525438 0
-9.8385106 -0.27665585 0
-9.8385106 0.27665585 0
-12.473146 4.5525438 0
-6.2396157 -8.7278259 0
-8.3106352 -3.1836375 0
-8.3106352 3.1836375 0
-6.2396157 8.7278259 0
-3.0734271 -7.7754975 0
-1.4031873 -0.91419566 0
-1.4031873 0.91419566 0
-3.0734271 7.7754975 0
3.0734271 -7.7754975 0
1.4031873 -0.91419566 0
1.4031873 0.91419566 0
3.0734271 7.7754975 0
6.2396157 -8.7278259 0
8.3106352 -3.1836375 0
8.3106352 3.1836375 0
6.2396157 8.7278259 0
12.473146 -4.5525438 0
9.8385106 -0.27665585 0
9.8385106 0.27665585 0
12.473146 4.5525438 0
10.511509 -1.1292339 0
11.908477 -0.32445606 0
11.908477 0.32445606 0
10.511509 1.1292339 0
