# vtk DataFile Version 4.0
hesp visualization file
ASCII
DATASET UNSTRUCTURED_GRID
POINTS 32 double
-1.3929731 0.35503192 4
-2.6127288 2.1774953 4
-2.6127288 3.4348149 4
-1.3929731 5.2572783 4
-1.295663 -2.2725919 4
-0.21038326 1.7252457 4
-0.21038326 3.8870645 4
-1.295663 7.8849022 4
4.5279498 -5.3508022 4
1.8254192 -0.71479675 4
1.8254192 6.327107 4
4.5279498 10.963112 4
7.9767909 -5.5709184 4
9.0385964 1.1918055 4
9.0385964 4.4205048 4
7.9767909 11.183229 4
13.635519 -5.5709184 4
12.573714 1.1918055 4
12.573714 4.4205048 4
13.635519 11.183229 4
17.08436 -5.3508022 4
19.786891 -0.71479675 4
19.786891 6.327107 4
17.08436 10.963112 4
22.907973 -2.2725919 4
21.822694 1.7252457 4
21.822694 3.8870645 4
22.907973 7.8849022 4
23.005283 0.35503192 4
24.225039 2.1774953 4
24.225039 3.4348149 4
23.005283 5.2572783 4
CELLS 0 0
CELL_TYPES 0
POINT_DATA 32
SCALARS m double
LOOKUP_TABLE default
1
1
1
1
1
1
1
1
1
1
1
1
1
1
1
1
1
1
1
1
1
1
1
1
1
1
1
1
1
1
1
1
VECTORS v double
-10.544432 -1.1853424 0
-11.924739 0.25521714 0
-11.924739 -0.25521714 0
-10.544432 1.1853424 0
-12.473642 -4.5559939 0
-9.7905348 -0.25711119 0
-9.7905348 0.25711119 0
-12.473642 4.5559939 0
-6.2401718 -8.7278345 0
-8.3089566 -3.1844969 0
-8.3089566 3.1844969 0
-6.2401718 8.7278345 0
-3.0728709 -7.7755236 0
-1.4037602 -0.91541092 0
-1.4037602 0.91541092 0
-3.0728709 7.7755236 0
3.0728709 -7.7755236 0
1.4037602 -0.91541092 0
1.4037602 0.91541092 0
3.0728709 7.7755236 0
6.2401718 -8.7278345 0
8.3089566 -3.1844969 0
8.3089566 3.1844969 0
6.2401718 8.7278345 0
12.473642 -4.5559939 0
9.7905348 -0.25711119 0
9.7905348 0.25711119 0
12.473642 4.5559939 0
10.544432 -1.1853424 0
11.924739 0.25521714 0
11.924739 -0.25521714 0
10.544432 1.1853424 0
