# vtk DataFile Version 4.0
hesp visualization file
ASCII
DATASET UNSTRUCTURED_GRID
POINTS 1250 double
36.3746 6.1413054 4
32.282604 -2.3492947 4
35.042302 6.2832279 4
28.65682 0.9353918 4
30.098349 4.5519439 4
30.03215 8.2248652 4
29.665365 6.8257569 4
33.869291 7.0760029 4
29.001876 10.641557 4
32.737131 12.313568 4
27.76927 12.536766 4
33.15198 14.823464 4
31.795869 14.844913 4
33.673596 17.035476 4
29.744967 15.226106 4
32.335989 18.031727 4
27.718315 17.758233 4
31.059397 17.652125 4
31.577608 21.336598 4
30.519364 19.9198 4
31.163659 21.484172 4
35.51078 28.464661 4
35.812216 24.745407 4
33.302224 30.111245 4
30.055238 28.862737 4
31.04825 -12.624855 4
30.799964 2.0877911 4
32.914762 -4.0539469 4
35.354415 5.5751185 4
36.571285 3.8584851 4
28.597071 7.9481726 4
30.572052 4.3858397 4
30.927295 12.931211 4
31.488321 9.3068924 4
30.150536 13.289173 4
33.297941 12.659544 4
28.375972 11.851916 4
30.730975 16.819499 4
29.465541 16.998956 4
29.098599 13.638314 4
33.462453 17.221822 4
32.480075 17.270329 4
31.513253 19.565394 4
29.438433 19.244497 4
29.799282 21.001329 4
30.575371 23.951978 4
33.327248 23.715169 4
32.926061 33.233231 4
32.596579 29.543742 4
31.04825 41.808868 4
31.858898 -3.5620753 4
34.601971 4.3143895 4
29.879119 7.6941148 4
33.25113 5.8003354 4
35.664827 5.5195501 4
29.234778 10.353827 4
30.9006 13.370179 4
32.954346 10.689254 4
31.399497 8.2620998 4
30.908681 10.55653 4
29.139381 12.499528 4
31.666048 13.333682 4
31.834706 14.2045 4
31.11158 16.632722 4
32.917771 18.070153 4
31.890711 17.519574 4
30.364484 19.048443 4
30.377628 20.224838 4
34.206442 19.054794 4
31.553452 18.315968 4
35.443912 23.817706 4
35.533124 25.831128 4
33.480095 27.313883 4
31.854767 24.996641 4
31.864122 32.733858 4
31.453091 -3.2484283 4
33.316162 -7.5517033 4
32.444978 5.2949217 4
32.19792 4.4012129 4
27.969001 3.7482207 4
30.057959 10.633738 4
33.62129 6.6002505 4
31.347192 12.268608 4
31.276475 13.001323 4
33.523661 10.117658 4
31.828799 11.958917 4
28.714375 12.677142 4
28.532114 13.191759 4
30.424271 16.382393 4
30.251266 16.152779 4
32.300411 20.003873 4
35.258882 17.249969 4
31.087119 20.573107 4
32.514151 23.452389 4
29.837806 25.327858 4
33.713967 25.109465 4
36.266559 24.634824 4
30.130854 26.844958 4
33.316167 36.735719 4
31.449973 32.433986 4
32.584462 7.9298257 4
32.984076 3.3852617 4
34.452284 -0.99991729 4
37.088497 1.8809324 4
31.347347 9.611107 4
30.114768 2.0533272 4
29.723644 9.5116787 4
34.778677 13.306486 4
33.378002 11.840823 4
32.082815 14.607085 4
33.180552 15.716661 4
36.557821 17.576756 4
34.186641 15.882616 4
30.242603 16.636609 4
30.129666 16.916504 4
33.104823 17.892282 4
30.998986 19.194611 4
30.821325 21.028076 4
31.459166 23.969363 4
30.114113 18.093129 4
28.889961 17.511468 4
31.436767 20.044518 4
33.810238 29.647573 4
34.629932 23.918979 4
36.739234 22.223463 4
30.370582 -4.0160515 4
31.713469 -6.5436164 4
33.805054 1.5251859 4
29.45818 11.857872 4
31.105097 8.5904237 4
31.22671 4.1258831 4
35.713227 8.1650614 4
35.130376 8.4225438 4
32.065283 7.1334163 4
34.942554 8.1700414 4
31.864488 12.501822 4
33.510196 11.120747 4
34.061192 11.017654 4
34.683579 16.087784 4
35.777684 18.295915 4
32.736008 16.878315 4
32.204815 18.939283 4
31.042125 18.385555 4
30.554239 21.186971 4
30.132629 24.200751 4
33.992013 23.436437 4
30.695727 25.106245 4
34.282419 21.443135 4
31.7139 35.72775 4
30.370573 33.200075 4
31.240994 0.56769017 4
36.726113 1.5077589 4
28.472977 -0.57753599 4
33.869047 6.7856391 4
28.565564 2.5130996 4
33.143504 7.7695693 4
36.079476 8.0451222 4
32.045785 8.7595027 4
32.432699 11.232998 4
33.899712 11.245588 4
32.944318 13.662859 4
33.966582 16.433484 4
35.893139 17.101732 4
33.875636 11.762283 4
33.346394 16.984109 4
34.688434 17.425566 4
32.087906 20.580875 4
35.767543 20.671212 4
33.130443 21.868537 4
30.601667 21.711074 4
29.574581 22.971036 4
35.108184 22.938607 4
28.220724 29.477557 4
37.084162 24.745955 4
32.317692 29.893533 4
39.728439 -8.4138745 4
32.576161 2.4353789 4
35.207954 1.7894965 4
32.551677 6.0053813 4
35.739869 6.1109664 4
32.167412 6.3787399 4
32.576018 10.0896 4
36.505585 11.913629 4
34.646871 10.857503 4
35.357777 9.82036 4
34.38403 11.301608 4
33.205536 14.529475 4
34.202482 14.24998 4
35.185297 17.007862 4
35.775193 12.867909 4
34.811458 16.515938 4
33.811739 20.400479 4
40.097234 19.759146 4
33.144723 19.299903 4
31.636657 20.57761 4
36.973844 27.978265 4
32.901786 24.850921 4
35.011664 27.577519 4
31.970791 26.292088 4
39.728439 37.597888 4
30.713262 1.4250219 4
29.224054 1.187856 4
35.575158 -1.5664637 4
33.42229 8.4412999 4
37.573055 5.601086 4
35.379054 4.3916434 4
33.456551 6.9096457 4
34.018621 12.542698 4
33.944179 13.291521 4
34.621809 12.866993 4
35.549492 13.884448 4
34.299152 15.088509 4
34.042911 17.446462 4
33.45153 14.919976 4
36.119856 19.282308 4
35.299596 15.55442 4
33.684163 18.472008 4
36.7947 18.349317 4
32.716344 19.103507 4
35.237106 21.75206 4
35.578836 20.83312 4
39.32274 22.719646 4
36.743249 31.474558 4
30.432409 27.054546 4
30.703884 26.984027 4
32.964044 0.12017508 4
33.060307 -4.9487907 4
33.84637 1.0291465 4
36.052412 3.9583776 4
35.174581 7.0291935 4
35.452271 9.1620865 4
36.194058 9.860318 4
33.671197 10.321151 4
38.377074 10.78793 4
36.562259 10.536266 4
36.894248 12.099811 4
37.172684 11.647253 4
32.635185 14.180051 4
36.74814 14.48499 4
37.514441 15.595034 4
36.85081 17.746996 4
34.502332 16.960432 4
33.023573 18.366256 4
36.650981 20.913204 4
37.041296 22.001133 4
34.784463 22.370082 4
35.131586 23.287539 4
33.73711 27.435371 4
33.060308 34.132799 4
32.551207 28.698621 4
33.133298 -0.80944755 4
35.791477 3.1837636 4
38.402071 5.4632072 4
32.341942 0.62014845 4
41.071374 4.7956571 4
37.464424 6.3312753 4
36.336676 6.8016491 4
35.405875 10.54691 4
37.039781 7.5583203 4
36.297815 11.294455 4
35.45648 11.71098 4
35.616894 15.406979 4
39.087985 12.811644 4
35.53654 17.353761 4
36.76458 16.75898 4
36.144117 19.995413 4
36.773827 20.348871 4
34.022368 19.710094 4
34.877215 20.673618 4
36.155162 20.868659 4
37.146627 26.741504 4
32.753887 29.066961 4
33.752265 24.435518 4
35.947721 26.394072 4
30.669074 30.519097 4
30.340664 -2.300743 4
32.760317 -1.3163406 4
38.549669 9.1833945 4
35.686008 2.881737 4
33.804168 5.293026 4
35.998827 5.4125425 4
35.369532 7.8299934 4
33.962904 9.0221314 4
35.807098 10.353005 4
36.883892 9.6245788 4
37.71876 13.067051 4
36.831638 10.847106 4
35.21141 14.432662 4
38.145033 15.149552 4
37.9075 17.770393 4
35.525686 17.898071 4
35.056375 18.516433 4
37.459902 19.532644 4
35.104135 20.332466 4
42.184883 23.484638 4
33.814986 19.414594 4
35.68832 26.210378 4
39.065359 17.726586 4
33.03278 30.675905 4
30.335054 31.513448 4
30.707266 -0.5979819 4
32.421173 -1.6728249 4
40.025826 2.8102086 4
38.650194 7.0298352 4
37.235154 5.2510359 4
39.122096 7.4706026 4
38.666808 11.023387 4
35.572307 10.183956 4
37.796905 10.301937 4
39.036184 12.069951 4
35.854601 13.42076 4
35.51573 12.470464 4
34.607049 15.416336 4
35.130535 15.272044 4
41.882699 14.980823 4
36.707369 19.136316 4
35.621939 19.509505 4
36.374627 19.138654 4
37.011629 19.682821 4
40.121363 23.381295 4
37.074521 23.282816 4
38.010063 24.66701 4
39.780062 26.302312 4
32.75706 31.380683 4
30.47635 27.799339 4
30.895897 -1.630311 4
34.925221 1.9941311 4
34.881955 -0.37370305 4
35.549632 5.0956913 4
38.051215 2.9729648 4
36.563194 9.0777019 4
37.387334 9.2496244 4
37.396493 7.2795957 4
37.565683 9.88789 4
37.874565 11.360534 4
39.693033 11.580777 4
37.972542 12.588533 4
39.726262 14.655868 4
37.501913 16.935331 4
38.251881 16.197263 4
37.108223 18.091408 4
38.225659 18.177942 4
38.041595 19.620622 4
34.755911 19.442096 4
38.250973 21.049435 4
38.338685 24.914815 4
35.256335 27.116808 4
34.93042 29.415254 4
36.742187 28.112929 4
32.696 30.440567 4
35.962818 -2.3605795 4
33.340604 0.45986655 4
35.939613 2.7325133 4
38.114731 5.0933431 4
38.117445 2.6640002 4
36.867101 9.188715 4
36.735878 7.1863106 4
39.807546 9.0018263 4
39.185939 11.262759 4
38.724356 11.91952 4
37.308275 12.366745 4
39.02762 15.459994 4
41.4907 13.939934 4
40.71342 13.772196 4
38.291607 17.250267 4
38.277512 17.899143 4
39.027247 17.411928 4
38.992264 19.763593 4
36.500961 21.270219 4
38.728051 21.134126 4
38.207658 23.376367 4
35.551113 24.098388 4
34.61861 27.010156 4
33.358965 28.79906 4
35.926285 30.739037 4
37.122387 -1.7267492 4
37.211437 3.7584644 4
38.354852 6.966316 4
37.269751 1.2181866 4
38.505748 7.9590424 4
37.271721 5.8171326 4
39.126277 8.3628636 4
39.522237 9.081051 4
40.878606 9.7462422 4
40.650675 10.572025 4
39.599392 12.147645 4
38.109232 11.61796 4
36.729757 14.123849 4
37.813357 16.075884 4
39.738138 15.787394 4
40.006879 17.71801 4
40.383192 19.5548 4
39.842527 20.173124 4
38.930435 22.094033 4
38.017149 21.408343 4
38.064272 24.210434 4
37.399227 25.242392 4
39.751441 25.028139 4
36.495909 24.91089 4
37.016021 31.100723 4
36.024644 -0.42284861 4
37.614575 4.3631158 4
40.163746 1.7919429 4
43.130102 6.9216554 4
38.145772 3.7725629 4
38.720503 7.3335602 4
39.952511 7.944672 4
39.718526 9.535341 4
39.57572 10.078151 4
40.49247 11.259494 4
39.405312 12.857338 4
38.658966 13.694475 4
37.744091 14.883906 4
40.62103 18.796417 4
41.14633 17.182759 4
40.484479 17.942513 4
39.571704 19.098741 4
41.12559 20.329325 4
40.506529 20.568574 4
37.036225 21.7179 4
39.73595 21.26214 4
43.355051 24.185844 4
41.524556 28.647113 4
37.637559 25.97922 4
35.574711 29.863957 4
36.786466 0.24739254 4
35.320023 1.0548788 4
37.848689 2.7529612 4
37.004466 5.0449252 4
38.009929 7.9901697 4
40.106063 7.2969393 4
41.002565 6.7296571 4
41.962092 7.5458726 4
40.976426 10.523114 4
41.592602 11.182635 4
42.524122 11.221196 4
40.231028 13.054052 4
41.815918 13.19038 4
39.874993 16.470513 4
40.718701 16.664063 4
41.617234 18.003225 4
40.69682 19.045187 4
40.777541 19.76406 4
40.308429 21.141695 4
38.869247 22.571556 4
39.366479 21.949074 4
37.715693 25.659961 4
37.176474 27.309836 4
36.231902 28.539029 4
36.127212 28.210256 4
36.930919 0.85207718 4
38.722126 -2.2471815 4
37.22751 3.4383014 4
[...]
POINT_DATA 1250
SCALARS m double
LOOKUP_TABLE default
1
1
1
1
1
1
1
1
1
1
1
1
1
1
1
1
1
1
1
1
1
1
1
1
1
1
1
1
1
1
1
1
1
1
1
1
1
1
1
1
1
1
1
1
1
1
1
1
1
1
1
1
1
1
1
1
1
1
1
1
1
1
1
1
1
1
1
1
1
1
1
1
1
1
1
1
1
1
1
1
1
1
1
1
1
1
1
1
1
1
1
1
1
1
1
1
1
1
1
1
1
1
1
1
1
1
1
1
1
1
1
1
1
1
1
1
1
1
1
1
1
1
1
1
1
1
1
1
1
1
1
1
1
1
1
1
1
1
1
1
1
1
1
1
1
1
1
1
1
1
1
1
1
1
1
1
1
1
1
1
1
1
1
1
1
1
1
1
1
1
1
1
1
1
1
1
1
1
1
1
1
1
1
1
1
1
1
1
1
1
1
1
1
1
1
1
1
1
1
1
1
1
1
1
1
1
1
1
1
1
1
1
1
1
1
1
1
1
1
1
1
1
1
1
1
1
1
1
1
1
1
1
1
1
1
1
1
1
1
1
1
1
1
1
1
1
1
1
1
1
1
1
1
1
1
1
1
1
1
1
1
1
1
1
1
1
1
1
1
1
1
1
1
1
1
1
1
1
1
1
1
1
1
1
1
1
1
1
1
1
1
1
1
1
1
1
1
1
1
1
1
1
1
1
1
1
1
1
1
1
1
1
1
1
1
1
1
1
1
1
1
1
1
1
1
1
1
1
1
1
1
1
1
1
1
1
1
1
1
1
1
1
1
1
1
1
1
1
1
1
1
1
1
1
1
1
1
1
1
1
1
1
1
1
1
1
1
1
1
1
1
1
1
1
1
1
1
1
1
1
1
1
1
1
1
1
1
1
1
1
1
1
1
1
1
1
1
1
1
1
1
1
1
1
1
1
1
1
1
1
1
1
1
1
1
1
1
1
1
1
1
1
1
1
1
1
1
1
1
1
1
1
1
1
1
1
1
1
1
1
1
1
1
1
1
1
1
1
1
1
1
1
1
1
1
1
1
1
1
1
1
1
1
1
1
1
1
1
1
1
1
1
1
1
1
1
1
1
1
1
1
1
1
1
1
1
1
1
1
1
1
1
1
1
1
1
1
1
1
1
1
1
1
1
1
1
1
1
1
1
1
1
1
1
1
1
1
1
1
1
1
1
1
1
1
1
1
1
1
1
1
1
1
1
1
1
1
1
1
1
1
1
1
1
1
1
1
1
1
1
1
1
1
1
1
1
1
1
1
1
1
1
1
1
1
1
1
1
1
1
1
1
1
1
1
1
1
1
1
1
1
1
1
1
1
1
1
1
1
1
1
1
1
1
1
1
1
1
1
1
1
1
1
1
1
1
1
1
1
1
1
1
1
1
1
1
1
1
1
1
1
1
1
1
1
1
1
1
1
1
1
1
1
1
1
1
1
1
1
1
1
1
1
1
1
1
1
1
1
1
1
1
1
1
1
1
1
1
1
1
1
1
1
1
1
1
1
1
1
1
1
1
1
1
1
1
1
1
1
1
1
1
1
1
1
1
1
1
1
1
1
1
1
1
1
1
1
1
1
1
1
1
1
1
1
1
1
1
1
1
1
1
1
1
1
1
1
1
1
1
1
1
1
1
1
1
1
1
1
1
1
1
1
1
1
1
1
1
1
1
1
1
1
1
1
1
1
1
1
1
1
1
1
1
1
1
1
1
1
1
1
1
1
1
1
1
1
1
1
1
1
1
1
1
1
1
1
1
1
1
1
1
1
1
1
1
1
1
1
1
1
1
1
1
1
1
1
1
1
1
1
1
1
1
1
1
1
1
1
1
1
1
1
1
1
1
1
1
1
1
1
1
1
1
1
1
1
1
1
1
1
1
1
1
1
1
1
1
1
1
1
1
1
1
1
1
1
1
1
1
1
1
1
1
1
1
1
1
1
1
1
1
1
1
1
1
1
1
1
1
1
1
1
1
1
1
1
1
1
1
1
1
1
1
1
1
1
1
1
1
1
1
1
1
1
1
1
1
1
1
1
1
1
1
1
1
1
1
1
1
1
1
1
1
1
1
1
1
1
1
1
1
1
1
1
1
1
1
1
1
1
1
1
1
1
1
1
1
1
1
1
1
1
1
1
1
1
1
1
1
1
1
1
1
1
1
1
1
1
1
1
1
1
1
1
1
1
1
1
1
1
1
1
1
1
1
1
1
1
1
1
1
1
1
1
1
1
1
1
1
1
1
1
1
1
1
1
1
1
1
1
1
1
1
1
1
1
1
1
1
1
1
1
1
1
1
1
1
1
1
1
1
1
1
1
1
1
1
1
1
1
1
1
1
1
1
1
1
1
1
1
1
1
1
1
1
1
1
1
1
1
1
1
1
1
1
1
1
1
1
1
1
1
1
1
1
1
1
1
1
1
1
1
1
1
1
1
1
1
1
1
1
1
1
1
1
1
1
1
1
1
1
1
1
1
1
1
1
1
1
1
1
1
1
1
1
1
1
1
1
1
1
1
1
1
1
1
1
1
1
1
1
1
1
1
1
1
1
1
1
1
1
1
1
1
1
1
1
1
1
1
1
1
1
1
1
1
1
1
1
1
1
1
1
1
1
1
1
1
1
1
1
1
1
1
1
1
1
1
1
1
1
1
1
1
1
1
1
1
1
1
1
1
1
1
1
1
1
1
1
1
1
1
1
1
1
1
1
1
1
1
1
1
1
1
1
1
1
1
1
1
1
1
1
1
1
1
1
1
1
1
1
1
1
1
1
1
1
1
1
1
1
1
1
1
1
1
1
1
1
1
1
1
1
1
1
1
1
1
1
VECTORS v double
7.7839384 -4.2866152 0
4.5448651 -10.045453 0
-4.5676017 2.8294109 0
3.7964036 1.1169571 0
3.5991013 -0.60510768 0
8.1455145 3.2239326 0
-6.1321232 -0.93528878 0
0.46837343 -13.022433 0
-0.87392438 1.5434149 0
2.5136965 11.285441 0
-17.544633 -6.9036151 0
2.5891972 3.8761583 0
3.7957569 -5.0986736 0
7.4988647 13.249118 0
-3.1296491 -5.8787733 0
1.8431832 3.9263683 0
-14.308289 2.0865462 0
8.8303874 -5.928426 0
0.57073142 5.2369343 0
-9.6103585 1.8652239 0
-1.8451927 0.68030401 0
7.799783 8.306952 0
-4.6821474 9.5809252 0
9.414988 -0.87122504 0
-3.6900488 9.8592166 0
2.6309692 -13.726701 0
-8.3887555 0.2973261 0
5.3683917 -9.5871034 0
3.8834686 0.35362697 0
8.8053229 2.5485119 0
1.9402762 2.6988448 0
0.42141005 -10.401599 0
8.3860273 11.597407 0
-0.83211527 2.3274722 0
-6.08487 17.145739 0
2.4479238 5.9697146 0
-7.1067929 1.564166 0
-12.737176 11.893706 0
-10.294704 4.2744676 0
-7.4467223 -9.8813683 0
4.6623715 -8.6075116 0
5.1884829 -5.1149907 0
4.8874521 2.2642434 0
-1.890447 -2.045618 0
-3.9550752 -0.72850997 0
-4.7389609 -3.5538907 0
8.0784452 -1.9570335 0
5.3897549 9.5825828 0
-4.4762159 10.596532 0
2.6309692 13.726701 0
-0.27705257 -9.5152452 0
-8.5920057 -4.7033537 0
4.2943945 5.466089 0
2.4702961 0.78530698 0
10.020259 7.7914584 0
6.5726146 5.369482 0
2.5290155 -12.821565 0
2.4621002 -2.6148778 0
-4.5721275 -12.132199 0
3.0725045 8.7869518 0
10.833314 10.013073 0
-10.628636 -1.4882123 0
-10.887204 -9.4901344 0
3.650158 -5.3358751 0
5.946373 0.096983853 0
-3.9639129 2.6473031 0
0.98551788 14.84566 0
1.7570445 -12.321525 0
-13.433618 -3.3970442 0
-3.440304 11.692044 0
9.8171146 0.077945458 0
-2.3701359 7.7501892 0
-9.3359998 2.831372 0
-10.538753 -2.2772798 0
-0.24567868 9.4858709 0
0.017448433 -3.5689086 0
6.8350546 -10.617902 0
-1.5842746 -10.052571 0
7.6967535 10.765376 0
-1.5893042 -10.587536 0
-8.8601613 0.676358 0
-3.2287468 -3.1591165 0
-0.99617196 9.2113472 0
-11.002784 12.329316 0
5.8080879 -3.2878238 0
0.36415201 -3.9517776 0
10.831362 -5.5824282 0
-0.24334972 -0.87172357 0
5.6785458 -8.3532934 0
-4.628421 -16.553763 0
-16.520002 7.8517972 0
4.8447042 -1.1072543 0
-2.2139666 2.8052914 0
0.74253087 9.9971552 0
-5.6533912 1.1570244 0
1.9521382 8.2544779 0
1.7802421 -8.2852679 0
-3.1480026 15.39088 0
6.835061 10.617906 0
-0.01480539 3.5724779 0
-4.7386048 10.804689 0
3.8953313 -2.5248513 0
9.9878004 -6.0472658 0
0.83375723 -9.5870614 0
12.415531 1.2307647 0
-5.6981151 -10.535369 0
-7.5885881 4.9757101 0
12.300873 8.3375847 0
9.8749848 4.8769803 0
7.4972789 -1.9694992 0
2.1173258 1.0984514 0
12.226979 11.144073 0
4.5068566 -9.592072 0
-4.07586 1.3299304 0
-10.022332 -3.0382405 0
3.0221686 4.2442427 0
-10.968062 1.6333889 0
0.32891425 -6.6695219 0
2.0292478 3.4205569 0
1.51801 -11.358836 0
-9.1995037 -14.371526 0
-8.7851916 -6.9199584 0
7.972766 4.2641481 0
-2.8248256 9.2142559 0
5.8049043 -6.6311286 0
-1.1175591 -6.3271068 0
-1.9960005 -10.927617 0
-8.4902773 -4.6784106 0
-3.7264531 7.6625536 0
0.96140558 3.4892196 0
-0.49118431 -9.2145835 0
-6.0636642 0.38584863 0
10.701639 -3.3825706 0
-2.2456018 -12.592714 0
2.5301895 -1.5015284 0
-12.454666 -1.0370668 0
-8.9457305 7.9071623 0
2.6168786 -12.04726 0
1.2978848 9.3411352 0
1.9377876 3.7723536 0
4.9849188 -1.487199 0
3.5332937 -0.01231415 0
-10.046751 -1.8386573 0
-3.3525878 2.8630991 0
-3.7429263 15.515144 0
3.1165075 5.7160108 0
1.2172192 5.2218814 0
-2.5227036 1.075635 0
-1.9954121 10.927786 0
-1.1175837 6.3271361 0
9.8702679 -3.0404139 0
-5.7835439 -8.3116584 0
-6.4119528 -6.875233 0
0.95871094 -7.4992729 0
-7.3019093 -8.1933176 0
5.9279202 6.2443159 0
10.626654 5.5787423 0
-2.9039284 -9.0044675 0
-1.2299489 0.28976753 0
4.7704034 -5.7689409 0
-6.9940348 2.5607405 0
10.299554 20.873686 0
10.070773 8.8794826 0
2.3838432 4.5260724 0
-9.2069772 -2.5678517 0
11.133268 -1.4409065 0
-11.176891 -1.1606827 0
-1.4221849 14.867622 0
-1.7507121 9.2378704 0
-6.8662655 4.0570934 0
3.1164569 8.4687551 0
3.5917179 -8.9337264 0
-6.899631 6.1485593 0
1.640434 -3.1320457 0
6.6782396 10.810348 0
4.8370531 -9.9977527 0
-2.5816815 0.23488261 0
-7.4719518 3.7586279 0
-0.40859003 10.140511 0
4.3052349 -0.3373874 0
-4.1984984 -5.9910064 0
5.337365 0.93474152 0
1.4266131 9.8896366 0
-0.7872971 1.0408337 0
10.625582 -4.4619194 0
-2.5194736 0.38040566 0
-1.6886389 6.1243092 0
-9.0343139 5.4318606 0
1.565683 1.1593881 0
0.72519413 0.64439156 0
3.5755724 -0.72197575 0
2.0419837 0.9250762 0
11.453148 1.9345613 0
-11.435725 -8.2825954 0
-9.0314082 -7.0719291 0
-12.839324 8.4730639 0
-0.8369784 7.8985664 0
-8.5768518 -2.3473073 0
-5.1101443 -2.0728775 0
4.8370532 9.9977527 0
-8.5306034 0.34348256 0
-9.9750866 -1.7543217 0
-5.5730113 -7.3788011 0
-9.9518691 7.8647321 0
2.0882909 3.8660004 0
2.0338354 -5.1535008 0
-15.782372 -5.3323804 0
-0.058534427 13.942967 0
-5.4867782 -0.37299261 0
-0.93984688 0.21206314 0
-0.2539136 17.544135 0
-7.5683216 2.0994546 0
6.0945692 8.8259471 0
-2.8909361 7.934061 0
0.59944083 9.1969001 0
7.432436 -9.2249812 0
1.1419755 3.7882434 0
5.7414489 -1.4030673 0
18.276415 -12.006161 0
1.3598153 0.060781262 0
7.7119821 -2.8271138 0
8.1242499 -4.556593 0
-1.2276157 12.354718 0
3.4248996 -7.8669537 0
-4.031812 2.8396782 0
3.2863262 -3.5522205 0
-3.9337271 -8.2566338 0
-8.1513608 -10.323541 0
8.5959392 -5.6346601 0
-4.1646448 1.8635944 0
-1.2248963 -8.3537855 0
3.4894154 10.482082 0
-9.4008215 -4.0173155 0
5.9029253 -2.2740293 0
7.9058971 -4.515088 0
-1.8600177 2.1140794 0
6.764238 -0.48948366 0
-4.3758332 4.8778103 0
9.2212658 -3.597485 0
-5.0737931 -11.180142 0
-7.4592136 4.6362725 0
-2.8604444 -3.5741255 0
-12.468809 2.6533419 0
1.1149792 3.7983065 0
-2.9456191 -4.4661538 0
-3.0072232 -5.8286349 0
7.3871232 -3.107778 0
9.130184 11.475484 0
-3.9337134 8.2566288 0
1.3265026 2.1419351 0
11.442509 -1.9778227 0
0.257812 -0.17308468 0
3.9463394 -4.3381705 0
-7.3192967 -7.295574 0
2.3828113 -9.5964542 0
7.7997959 -0.18226124 0
1.1866315 -4.6298683 0
-12.28141 -1.0190055 0
-2.2896221 -15.753933 0
-6.1140745 3.9576295 0
-7.850979 -22.768154 0
-10.273718 1.4442918 0
-1.5762491 5.7649678 0
-6.2363795 -0.78425296 0
-9.6045194 -4.5348232 0
-3.0133623 8.7796301 0
14.87271 12.218211 0
-8.4947062 1.6744655 0
-5.3062459 2.144683 0
-12.903125 -7.7706275 0
-0.53990954 7.2152115 0
-4.9704502 6.2097483 0
-1.2628581 -5.3227043 0
0.52327204 -1.8281877 0
-11.453275 4.6633507 0
-7.9364051 -6.993796 0
-7.4541218 -4.513143 0
-9.5880419 10.493485 0
1.6562555 -9.8505079 0
-0.6724603 -19.761935 0
-13.085363 -8.0294662 0
-6.698075 -3.1146813 0
-9.8737962 0.73459848 0
10.931442 -0.30410527 0
-6.6555678 3.6854282 0
15.406706 11.110533 0
-11.019831 -5.1830899 0
-11.189529 -0.85300495 0
9.4081255 -1.5041417 0
5.1679554 1.6393569 0
-9.0245053 6.9827254 0
-7.0639254 -7.8383521 0
-4.3314921 2.364064 0
-6.0620056 -5.3405122 0
10.01962 6.1764203 0
5.8018194 -5.0429168 0
6.2037882 3.1337287 0
-12.414423 -6.5173184 0
0.18618193 9.3864309 0
-7.9848884 7.1875568 0
-9.0180385 -9.0487142 0
-8.6164949 -9.1595595 0
4.2799545 -3.3294733 0
1.258217 -2.9840739 0
0.86184837 -2.5286639 0
-0.38623544 -8.4341091 0
6.3381258 -2.0041857 0
-10.401683 9.5011919 0
1.8310622 6.3717051 0
-4.8429177 11.473693 0
8.7933336 -5.3595451 0
-6.7074022 -3.5476454 0
-4.3181555 5.8883195 0
-9.7069448 -1.229949 0
5.6881976 7.1700462 0
-3.5482658 4.0777759 0
-14.470577 7.236557 0
0.28586745 -9.6699314 0
-11.220586 -0.063946676 0
9.7096414 2.9373431 0
-4.7878441 5.3774772 0
1.9619311 3.9001019 0
3.0760968 1.9006858 0
-2.3774015 17.718364 0
-10.12541 -1.2212386 0
-11.224063 -7.4058949 0
-9.4205764 -0.65835312 0
-4.0505711 -9.1707134 0
-5.7130438 3.4484666 0
-6.9080671 -4.638689 0
-6.2387046 12.535205 0
-8.5971991 9.7793483 0
-1.9936725 -11.600612 0
-1.812587 7.9383 0
-10.806017 7.0369612 0
-1.4249335 3.8938898 0
-1.95939 -1.3470258 0
3.3824432 6.4912012 0
3.6522315 0.54492217 0
4.5986858 -7.3946909 0
-10.405299 2.6283425 0
-2.1908321 2.3202396 0
-10.723376 -9.4460107 0
-16.374396 -10.951556 0
0.79920688 6.8851339 0
2.2817282 3.7152078 0
-3.1510378 9.755964 0
-3.9698994 8.6400603 0
-3.7267865 13.493016 0
-4.2402945 1.5185616 0
-3.1173352 -11.673604 0
-8.8773945 -3.3822354 0
-0.39145067 1.2979201 0
7.7445997 -0.62841848 0
-7.7618953 -12.723907 0
-12.763499 -12.77974 0
-7.7608061 -4.5864388 0
-2.1107926 -4.3633333 0
-2.5674499 -9.1651015 0
-0.26871738 14.005062 0
-10.125784 -0.1145109 0
-8.1868601 7.7047623 0
-2.1182603 -14.044362 0
-0.30192652 -8.2228576 0
-9.7312965 2.4780593 0
-5.4342388 -14.016363 0
-6.8008338 -13.920927 0
9.6673657 -4.7794495 0
-9.3087223 -2.2339749 0
-1.9839264 2.8562885 0
-1.6786893 -11.194318 0
-3.3566067 -5.5120595 0
-9.7132438 0.68007887 0
-8.850296 3.5558491 0
-3.9903679 6.4339735 0
-1.660041 -7.0151313 0
-5.4200777 -1.8732252 0
-4.1568915 4.664357 0
-4.9227668 -2.4286916 0
2.56737 -3.9400806 0
-0.61124318 -3.4574966 0
-0.15733436 -1.0794062 0
2.1157583 5.7538677 0
0.40992939 -7.2223902 0
6.2548116 -8.215735 0
9.9206541 -7.3723406 0
-11.599877 -8.4944993 0
-9.704635 -1.3098084 0
-2.1836255 3.9862817 0
-5.0660034 -7.7505658 0
9.5535966 -7.4642495 0
-1.8590495 -4.116463 0
-4.6583551 -8.734241 0
-7.4814293 -0.4815376 0
0.50286369 -7.712569 0
-3.4019312 0.61478846 0
-7.6965932 4.5943919 0
2.4464766 3.9161252 0
-2.6335479 -6.0242026 0
-2.2612591 7.5406819 0
-3.8793739 -11.789458 0
-0.79920797 5.9925543 0
-11.287824 -3.0262675 0
-0.80006684 6.0230538 0
-5.6300351 0.1224558 0
-4.9273573 10.861218 0
-6.9408416 2.3620494 0
-9.2077718 1.4216888 0
-9.9630859 -0.25440293 0
-10.007524 0.43923309 0
-13.534036 0.58058875 0
-10.006689 0.92989567 0
-10.017337 0.58431691 0
0.057457059 14.897993 0
2.0660431 3.2688913 0
-10.181129 -0.16195428 0
-10.021428 0.13679439 0
8.5640064 5.2587267 0
1.9169035 -2.9376064 0
-1.9868043 4.3646473 0
-5.8201215 7.2615695 0
4.9320955 -2.3695352 0
-1.9353795 9.3989776 0
-3.1097387 1.270501 0
-8.5915212 13.473269 0
-6.3156248 -4.7444816 0
-12.068122 0.48443555 0
2.0054724 2.608091 0
-10.084411 8.3586389 0
-8.4817787 9.4827886 0
-8.5026122 3.2860126 0
0.96966116 -7.3954856 0
1.0858792 -11.579951 0
-0.56859324 13.442531 0
-10.679178 -1.0245379 0
9.0764127 -7.2166875 0
-4.9294527 0.92050678 0
6.8449672 -5.4119052 0
-9.7390385 3.4423449 0
-9.5456134 -2.0925304 0
-9.8844123 1.4907663 0
-9.7652914 0.46166106 0
-9.4123783 -3.5863394 0
-3.896012 -7.5700979 0
-9.5426712 5.695456 0
-14.630015 0.29588687 0
-7.295163 0.5340654 0
1.5268982 -6.6492181 0
-5.315027 5.0391122 0
-9.687434 3.7760267 0
-13.392647 -7.2234615 0
-6.4494246 -10.2075 0
-9.9513718 0.76029537 0
7.3153606 0.86514429 0
-3.3828467 4.1390301 0
1.9828318 -5.3452667 0
-11.66974 4.6799173 0
-3.2185302 4.2848829 0
-8.8740998 1.7948843 0
7.7024994 -1.118883 0
-7.2243108 4.9568474 0
-11.196315 -7.4204208 0
-4.1501013 4.4176632 0
-3.1406065 7.6383138 0
13.509041 3.9456366 0
-6.1389333 9.5435138 0
-9.9249411 1.3326462 0
-10.824606 0.066047119 0
4.4689358 -0.1187409 0
-2.1705268 0.6223038 0
-5.2842067 5.8892923 0
-10.127971 -1.3974568 0
-3.9876167 3.225638 0
-6.716154 10.486882 0
4.6287863 9.2521805 0
-10.007022 0.0097364796 0
-10.028505 0.098231432 0
6.6289652 0.49753492 0
-7.5865997 -4.3728145 0
8.2639396 -7.940234 0
-8.433324 5.4235277 0
-0.57115229 -9.0196808 0
1.7505098 7.8256284 0
-8.6831294 5.5390411 0
-10.040069 -0.23771337 0
-9.9668449 -0.010790766 0
0.52705813 -8.2051819 0
-2.3405987 7.5386115 0
-5.563194 3.3105202 0
3.4350987 -7.0037439 0
-10.021539 0.14422852 0
1.7958839 -12.439163 0
-9.8513863 -8.4869634 0
1.4112581 7.5562798 0
-7.2955743 -9.911237 0
-9.6464901 2.4725614 0
-5.6399929 -4.2072798 0
-9.5235791 -3.3502507 0
-10.014243 -0.050513962 0
-10.007468 -0.010047767 0
-9.9992755 0.013487209 0
-9.9782144 0.02871765 0
-14.270255 -3.0070555 0
-7.0279024 -2.6093679 0
-3.2186742 8.7088487 0
2.3836654 -4.8323681 0
-9.8902169 1.7504857 0
-8.3866317 -6.0760563 0
8.5913723 -4.4745479 0
9.9900488 0.1961742 0
-8.5242958 -12.024378 0
-0.77847621 1.422063 0
15.236636 4.3232752 0
-9.9998898 0.0048579597 0
-10.026465 0.31066187 0
9.9950833 -0.12032044 0
8.5453473 4.5069221 0
-8.4585669 5.8621692 0
-3.192593 4.9920759 0
-4.5855738 -4.1617434 0
4.7042922 10.026118 0
-5.0119446 3.9189001 0
-10.267585 -5.7574388 0
-9.907684 -0.088374005 0
-9.9996065 -0.012913015 0
-10.001702 0.016788908 0
0.61489867 -2.0715222 0
-6.7303487 1.8032467 0
-10.277503 0.47519381 0
-10.287355 -1.6180263 0
-12.002523 0.6015631 0
2.178242 11.303743 0
8.2860017 4.8674557 0
9.9979148 -0.0013846704 0
9.998066 -0.00024900022 0
9.9941995 -0.21312879 0
3.1610989 -10.608903 0
-12.741969 -3.3537989 0
-10.014545 -0.037724335 0
9.992454 -0.2716373 0
9.9980637 0.00044310739 0
9.9979077 0.0013049091 0
8.4173598 -4.7114243 0
-9.2919099 7.4999343 0
-1.629642 -12.040595 0
-11.618037 3.1504389 0
-10.440959 -0.052197851 0
-4.8356561 4.1231676 0
-10.195753 0.16620208 0
-9.9883501 -0.022864244 0
-9.9890026 0.039635168 0
-10.061089 -0.1512795 0
-10.008101 0.0022890425 0
-10.006917 0.027055588 0
4.2261 10.588856 0
-5.2685624 -5.6159904 0
7.4131255 5.7555483 0
9.9905872 -0.019128905 0
9.9995624 -2.6885845e-05 0
9.999584 -1.9353211e-06 0
9.9996149 0.0010612031 0
9.9995847 -0.0019768831 0
-10.017735 0.00011865253 0
9.9989243 0.031119647 0
9.999619 0.0014137221 0
9.9995858 2.4834865e-06 0
9.9995654 2.0923119e-05 0
9.9877383 0.020840047 0
7.0320273 -6.1731546 0
-5.5463653 -13.874615 0
-0.58659087 0.48253462 0
-9.0662117 5.8445687 0
-10.005811 -0.026054459 0
-10.021467 -0.032905861 0
-10.043507 0.019413382 0
-8.5292648 -2.8765846 0
-10.001161 -0.0022052563 0
-9.9996498 0.00020931495 0
-9.9934001 0.027335456 0
-4.9810946 -2.11756 0
9.8911659 -1.2096613 0
10.000436 0.0027262234 0
10.000383 -2.4988338e-05 0
10.000437 -4.6998297e-06 0
10.00044 -9.1483244e-09 0
10.00044 -1.3881902e-07 0
10.000522 0.00018668535 0
10.001553 -0.0012117999 0
10.000519 0.00034371315 0
10.00044 -3.2469531e-07 0
10.00044 -1.2133597e-08 0
10.000436 4.9491263e-06 0
10.000408 -2.3232763e-06 0
10.001051 -4.3857036e-06 0
9.9189978 1.2367319 0
-4.5425352 2.6851673 0
1.3376447 8.4325491 0
-10.000224 -0.0024385913 0
-9.9999289 8.284531e-05 0
-9.9999384 -0.012657805 0
-10.012025 0.011977105 0
-10.012691 -0.0001125401 0
-10.015063 0.0089082084 0
-12.328964 -5.5145128 0
7.2476073 6.1692578 0
9.8497962 -0.068550535 0
9.9960585 -0.00019670136 0
9.9961458 -2.5730237e-06 0
9.9961465 2.2929408e-10 0
9.9961465 1.9314005e-11 0
9.9961465 -2.8197969e-09 0
9.9961464 3.7963347e-08 0
9.9961542 -1.1760028e-07 0
9.9961465 5.4548469e-08 0
9.9961464 -5.3825936e-09 0
9.9961465 -1.7164824e-11 0
9.9961465 -1.4250625e-10 0
9.9961457 2.8012678e-06 0
9.9960528 0.00020549813 0
9.8821337 0.054333166 0
6.9826286 -6.3364696 0
-12.035806 2.7856772 0
-9.925605 -0.13534668 0
-10.012657 3.8654901e-05 0
-10.011964 -0.011964549 0
-3.5602888 7.372368 0
0.64856085 -5.6995678 0
7.8494467 6.1903067 0
-1.3700791 -8.2779694 0
1.2063842 1.2419224 0
1.7060039 -4.0765669 0
-6.4276507 -6.8628688 0
6.809002 13.165452 0
-11.319131 -2.7171176 0
-10.301043 5.5640689 0
-8.3547131 1.2723273 0
-10.84818 8.0633132 0
8.2252671 -10.657304 0
-12.534401 5.8867088 0
6.2096005 -5.2110032 0
5.1831444 0.34739208 0
-5.7417188 -15.1364 0
12.58862 4.095458 0
-2.1324277 1.0340075 0
-7.094271 -5.2487743 0
4.5557937 19.525656 0
2.3031897 14.499687 0
1.6696324 -0.31747017 0
-6.3939975 -4.5895855 0
3.7029655 13.667981 0
-2.6309692 -13.726701 0
1.3067762 1.4354511 0
-5.3672443 -9.6108228 0
-5.6923202 -6.8028152 0
-4.5730032 0.77975211 0
6.5104438 5.2927754 0
-6.0871243 6.1501559 0
8.7310113 -1.6936539 0
0.68533754 3.2202818 0
5.1353449 -4.4329299 0
-8.2950457 12.855336 0
9.9785572 12.683179 0
-8.2748577 -0.51509976 0
-7.3539048 6.1017713 0
5.7966672 -5.7137966 0
-2.0454593 -3.7131836 0
-1.6963445 12.227675 0
7.0409517 3.9648766 0
5.2374622 2.3807767 0
-1.2019716 -14.549861 0
-8.3178323 7.2287516 0
-0.1183497 1.0474418 0
-5.3899814 9.5765998 0
7.960958 7.0206173 0
-2.6309692 13.726701 0
0.27860847 -9.5048671 0
10.743228 -9.387254 0
-11.121977 1.943996 0
-9.8390935 -4.9757852 0
-1.3419408 -4.1174158 0
-7.6085675 -4.8965251 0
12.090682 -9.9955956 0
2.8510137 -13.256089 0
-13.59517 6.785118 0
1.2489002 -1.2259431 0
12.343482 -6.1904765 0
3.4326868 -15.664346 0
10.575814 6.8824994 0
-6.5165489 -16.425963 0
2.4069118 -2.5824906 0
3.0369367 -20.467675 0
7.8120562 12.632873 0
4.9383649 -0.32536592 0
4.117393 3.7808476 0
7.7348031 5.2909983 0
-7.881556 -0.87242492 0
6.9609894 5.0916607 0
-4.1296272 3.0491556 0
-2.1298023 -3.2148397 0
0.24551217 9.4894436 0
-0.020482731 -3.5670215 0
-6.8350546 -10.617902 0
-6.9646254 -5.0491603 0
5.4405755 1.8602886 0
2.3196461 -2.7636163 0
-11.251042 10.794123 0
-2.9614023 -3.7251043 0
0.27124528 -1.5516308 0
1.0901607 8.6210591 0
3.7702096 -4.0553117 0
-4.2003825 -0.80177951 0
7.7927839 -7.8705315 0
-8.2566309 11.149216 0
6.3256674 -7.619355 0
-5.8020793 -0.059180291 0
-7.0928883 7.3504535 0
5.3587232 -1.8407516 0
12.282703 4.9927416 0
-2.9784551 -3.6929271 0
-1.6210028 -1.1781066 0
3.4854343 -5.026815 0
6.0732046 10.164218 0
-1.2555613 14.410061 0
-6.8350604 10.617891 0
0.015185565 3.5729524 0
8.2056049 7.9346815 0
5.5189747 8.3347098 0
-9.6362433 -8.1555765 0
3.654527 -4.1551723 0
-16.460618 -7.9593197 0
-14.219741 2.8101399 0
10.806715 -0.74074916 0
11.230229 12.092414 0
2.9319664 -8.710877 0
2.939277 2.9692507 0
9.827955 1.4306366 0
-5.3415176 5.1606139 0
2.5851362 0.85640144 0
-9.6119092 4.1427066 0
-4.8140176 7.0079978 0
-4.0908258 14.182562 0
6.8801897 -2.8219967 0
3.3107366 -1.2200474 0
5.9033471 10.136053 0
-2.2264477 -5.3171671 0
-9.6312698 2.891661 0