# vtk DataFile Version 4.0
hesp visualization file
ASCII
DATASET UNSTRUCTURED_GRID
POINTS 1250 double
37.437458 4.1529916 4
34.599792 -7.4690426 4
33.385467 7.7798142 4
30.363373 -3.0442317 4
32.334604 2.8511447 4
32.91569 6.2156257 4
30.613263 4.5661444 4
34.242669 5.6436164 4
28.210998 9.7528048 4
31.055306 12.645178 4
24.829073 13.530901 4
33.113199 17.01009 4
31.628081 16.529214 4
32.515478 21.005505 4
31.800088 17.155611 4
30.144105 17.759873 4
27.759282 17.645023 4
30.9562 18.515793 4
29.962117 22.152428 4
28.331907 19.499654 4
34.353883 22.347121 4
34.011347 33.955625 4
33.462579 28.74975 4
32.967481 31.903333 4
30.445967 32.578669 4
32.390042 -19.625472 4
26.225975 2.4225978 4
35.652045 -8.9444139 4
36.154414 4.4473246 4
39.080871 4.5828403 4
30.880038 9.0045624 4
30.233621 1.8928765 4
27.561511 12.490669 4
31.892346 10.505538 4
30.527659 17.427063 4
31.472698 12.872739 4
28.414027 10.886618 4
30.359233 15.653955 4
29.519259 18.621826 4
29.962085 14.514982 4
34.142985 15.934608 4
30.965917 18.916689 4
31.275108 21.152699 4
27.248136 16.821436 4
27.105795 21.509911 4
28.073342 25.112027 4
34.485364 25.405997 4
35.67437 38.121606 4
32.068016 33.56528 4
32.390042 48.809486 4
32.059429 -8.9450994 4
32.292676 2.460245 4
34.493299 8.5260444 4
33.524794 4.1997002 4
37.075893 3.6395008 4
28.773701 12.926716 4
30.150138 14.911301 4
27.771925 12.230578 4
31.971154 6.8595318 4
29.355443 9.2774765 4
32.279593 10.201469 4
32.769535 12.153966 4
30.868497 15.442401 4
33.377144 15.629176 4
32.492742 18.261063 4
30.669787 18.571616 4
25.804614 20.233324 4
28.697613 23.752212 4
33.220097 20.265854 4
30.899999 23.158576 4
39.660419 22.296064 4
34.381483 29.729765 4
28.661251 28.692792 4
27.776635 28.284995 4
31.753985 37.565038 4
31.399507 -5.0848535 4
36.802037 -12.966832 4
34.014453 3.9403853 4
35.586447 -0.30740263 4
28.55697 2.7453736 4
30.437323 11.000957 4
31.938397 4.8015095 4
33.910084 11.097906 4
32.140204 10.653144 4
32.343891 4.9400708 4
33.069223 10.384564 4
30.425412 12.51087 4
26.035202 10.16437 4
32.253196 14.369785 4
29.878269 15.545037 4
29.788074 18.078492 4
37.917227 14.75046 4
30.326747 21.690694 4
32.790058 28.598603 4
26.975116 25.863294 4
32.609176 29.44778 4
34.751205 24.660793 4
33.25165 29.866976 4
36.802045 42.150849 4
31.913518 35.985806 4
32.792608 9.9393835 4
33.282618 -1.7857749 4
33.704074 -4.4146446 4
34.676307 -3.5095172 4
34.582762 9.2616323 4
29.427343 -0.69153046 4
32.829756 6.7916162 4
33.398754 14.3345 4
33.48959 15.059674 4
31.280691 15.384546 4
33.287334 15.948566 4
36.541426 16.712032 4
31.47118 14.377063 4
30.743167 16.505114 4
29.895896 17.508888 4
35.39592 19.494045 4
32.204451 18.318886 4
31.583551 22.991717 4
32.525469 25.769415 4
28.049924 22.750416 4
25.593474 11.641572 4
29.669536 19.888788 4
38.410852 29.529538 4
33.072037 28.489583 4
35.23577 24.510076 4
30.458186 -7.2466662 4
30.695509 -12.116697 4
33.607627 -1.1670446 4
29.663627 8.9162981 4
35.537483 9.1300099 4
30.141598 -0.97578949 4
35.158848 7.7282558 4
37.126009 4.2436 4
30.042998 3.2902484 4
36.69825 7.6857182 4
32.00974 12.7576 4
34.931862 14.362669 4
37.580685 5.7233035 4
36.415527 15.262162 4
36.686945 20.739821 4
34.008624 18.248703 4
32.088223 19.156914 4
30.356153 19.483726 4
29.584711 24.73891 4
27.498345 28.22917 4
35.453067 26.281557 4
30.756943 25.063978 4
33.140967 21.962823 4
30.696241 41.30091 4
30.515094 36.426762 4
32.629148 -1.4704343 4
34.229203 -1.9167614 4
28.057841 -5.2389005 4
34.195167 0.90907823 4
26.22087 -2.0379082 4
33.339574 7.0654692 4
37.513889 10.112471 4
31.410597 3.9178477 4
32.475078 9.6158285 4
33.716191 10.61559 4
29.298435 15.213249 4
35.32834 18.151122 4
34.23466 16.493171 4
34.457297 12.078363 4
32.789956 17.198939 4
35.670395 15.942617 4
29.42271 22.96911 4
31.816802 20.608486 4
31.993332 27.053982 4
33.790732 26.143289 4
30.379213 23.56395 4
35.492057 22.549761 4
24.657967 33.329561 4
34.557631 25.091705 4
35.558343 30.683502 4
42.195336 -13.512728 4
30.992982 2.1907004 4
35.131349 -3.1487454 4
31.712453 9.1598786 4
38.409768 3.6883419 4
31.394569 4.4040777 4
37.573685 7.5785708 4
32.522119 15.300964 4
32.917644 13.496819 4
35.700935 9.577765 4
32.350232 11.7544 4
32.759931 14.127384 4
31.778324 13.851944 4
34.490937 15.073855 4
35.392246 12.725899 4
39.144972 16.239578 4
30.966956 20.38735 4
40.261563 24.766533 4
30.837984 19.97984 4
27.775168 19.240306 4
36.473565 30.231945 4
32.209082 28.815478 4
33.55193 28.450782 4
31.541161 25.281456 4
42.195336 42.696742 4
30.364761 -0.28823869 4
31.737687 -0.10621451 4
32.767855 -5.2856712 4
30.775311 14.411819 4
37.631098 6.8842962 4
34.72876 2.2816914 4
34.049219 8.6298956 4
32.493244 15.633241 4
34.06032 15.577583 4
35.270546 15.485204 4
35.787394 14.235168 4
29.633922 15.200546 4
30.843633 19.334912 4
35.963056 17.541653 4
34.337527 23.509298 4
34.727339 12.136652 4
30.640808 22.23823 4
36.926739 22.667162 4
34.561419 20.359953 4
35.070036 21.803742 4
33.098198 25.365098 4
42.852658 21.892466 4
36.143969 37.719857 4
30.134774 29.160233 4
32.441497 27.699008 4
32.889236 0.11206116 4
31.05471 -9.1571027 4
30.581445 -3.8544824 4
35.114369 4.5977607 4
33.28314 6.6746712 4
32.623974 9.3777011 4
33.375719 9.7342183 4
33.899318 13.554254 4
38.288961 9.7926143 4
37.268672 9.0840802 4
34.413296 10.677999 4
36.139504 13.198535 4
33.890996 12.283496 4
38.392034 11.575281 4
35.039168 13.675237 4
35.794482 18.91151 4
36.546224 13.388966 4
32.424588 17.427823 4
37.841682 19.615708 4
38.092728 23.318468 4
31.628683 21.906649 4
35.290988 21.620758 4
33.319538 35.568438 4
30.21838 40.036611 4
31.42808 27.881394 4
38.992509 -1.8568079 4
36.214478 1.3842132 4
39.100866 3.7179399 4
30.876101 -5.8258835 4
36.463272 2.8653523 4
40.072701 7.7670761 4
36.868363 6.9630548 4
28.980193 9.7106457 4
34.646389 5.7126205 4
34.592431 11.773387 4
32.951806 11.028021 4
37.545676 18.142566 4
35.664763 12.294231 4
37.583736 20.277347 4
37.123745 17.638482 4
38.088338 24.096692 4
37.261841 22.761873 4
33.126766 20.582761 4
30.858017 21.931453 4
38.778188 20.898202 4
37.296527 28.659516 4
31.867611 30.588701 4
32.606396 21.599668 4
33.976752 26.91102 4
27.883956 34.377072 4
28.290548 -4.5099973 4
29.285968 -3.6295945 4
41.29456 8.2360732 4
33.227631 -2.3280809 4
31.739036 3.5040378 4
33.46606 -0.1896094 4
33.111074 7.4178415 4
30.792139 8.710935 4
33.529201 9.9445165 4
33.148383 10.738497 4
46.065324 14.247748 4
37.942681 12.5349 4
37.163626 15.87822 4
37.735192 13.646246 4
39.207852 18.199935 4
37.338824 21.499428 4
35.755187 19.90176 4
36.03267 20.630288 4
34.393154 20.88137 4
47.30109 26.635057 4
31.159591 25.013985 4
34.028467 25.42121 4
39.755776 15.571449 4
33.160719 36.294772 4
31.309975 34.983052 4
31.032965 -4.3225385 4
34.106688 -5.7642255 4
40.326851 2.0388932 4
39.383061 6.646155 4
36.777575 3.5266281 4
40.80953 2.9180316 4
38.372966 10.760139 4
36.359432 5.8872819 4
38.437351 12.765829 4
43.223955 16.375292 4
34.827752 15.077621 4
35.620032 11.083739 4
32.474279 16.130645 4
32.460369 17.043938 4
41.062797 18.089863 4
36.224282 19.460341 4
38.615655 24.163401 4
34.056602 17.199492 4
35.563193 20.921616 4
45.186188 25.42744 4
32.768921 23.181035 4
37.82199 26.260186 4
40.1759 27.968568 4
32.352211 38.714787 4
33.082096 35.43783 4
31.519012 -8.210837 4
30.328472 1.6118924 4
32.776726 -4.8333269 4
33.857527 5.0567936 4
33.666767 -0.78559633 4
33.816824 12.630324 4
34.274062 10.995521 4
37.161635 4.4708809 4
36.499551 10.176228 4
34.358037 13.50092 4
37.434987 12.637852 4
36.910066 10.68552 4
43.259715 17.947215 4
41.499017 16.449666 4
37.254048 16.839312 4
37.379244 20.534634 4
37.722759 18.956999 4
36.397766 18.630583 4
32.512803 20.470752 4
38.39584 20.511407 4
39.138265 27.063118 4
34.897403 30.849818 4
34.012618 36.157928 4
35.450001 34.119859 4
31.043848 34.53328 4
34.372543 -8.3134616 4
29.997413 -1.6935451 4
37.193647 1.6240298 4
36.5597 1.7792507 4
31.933596 1.7813856 4
34.232743 6.9843598 4
34.90032 7.7259056 4
39.47739 6.9380567 4
38.718563 12.886144 4
35.859128 14.828843 4
36.793668 11.420742 4
36.640849 13.883427 4
41.288987 9.9615393 4
40.185075 10.104955 4
36.085435 18.57439 4
41.97951 12.746976 4
38.018364 14.007673 4
39.344873 15.337769 4
33.300666 19.307738 4
41.404458 23.763223 4
38.672611 23.695225 4
33.036643 24.498337 4
30.263393 27.397275 4
31.704524 33.40093 4
35.861881 35.880256 4
36.30227 -5.2229431 4
36.403362 2.0870294 4
35.423239 7.8207591 4
34.178423 -0.77317033 4
36.590674 7.3051149 4
39.120571 4.9134682 4
36.915397 9.6010162 4
41.995647 8.310666 4
40.188528 5.1951002 4
43.594276 8.707958 4
43.026769 11.715263 4
37.327394 10.291631 4
34.634219 15.896433 4
40.192927 16.844363 4
44.895568 13.203744 4
44.93133 14.024333 4
38.019709 20.35856 4
38.76509 19.112764 4
39.851966 22.563647 4
40.253801 18.439175 4
38.909055 24.369418 4
35.857857 26.266921 4
36.796808 27.12177 4
34.44664 24.718485 4
35.841912 34.980711 4
39.851999 -6.1666527 4
38.887295 5.6396035 4
34.926392 -0.47060351 4
43.19276 7.9533953 4
35.530722 4.217515 4
36.407507 5.3331526 4
39.167145 8.4384806 4
38.354721 12.537963 4
35.754868 8.3915806 4
40.553931 11.468536 4
36.392659 12.296201 4
36.351015 13.935178 4
36.490191 11.717256 4
38.57894 17.441347 4
37.42882 17.372813 4
38.25866 18.72745 4
38.549996 21.7845 4
37.929592 17.314836 4
42.826304 20.287841 4
32.604979 23.844831 4
38.028752 22.54552 4
45.790915 22.923367 4
40.536811 33.437759 4
36.068336 26.706657 4
31.138043 36.620834 4
32.960836 -4.2038123 4
29.982653 1.7699595 4
34.146865 -0.23788999 4
31.548476 2.4822343 4
34.822405 10.233711 4
40.357464 7.6845246 4
41.294573 2.9648265 4
42.669544 4.2228267 4
38.035948 12.96771 4
40.531527 15.608682 4
39.59507 10.448557 4
38.499396 15.337583 4
45.432196 11.400029 4
38.841573 16.601337 4
38.71246 17.93407 4
36.964593 18.272436 4
45.131566 20.630678 4
38.988659 20.074549 4
40.658094 18.475269 4
35.709255 23.509237 4
39.944729 25.393712 4
34.157802 26.155872 4
35.233545 29.684704 4
38.974222 29.598983 4
32.50775 28.728306 4
31.807173 -4.4736259 4
[...]
POINT_DATA 1250
SCALARS m double
LOOKUP_TABLE default
1
1
1
1
1
1
1
1
1
1
1
1
1
1
1
1
1
1
1
1
1
1
1
1
1
1
1
1
1
1
1
1
1
1
1
1
1
1
1
1
1
1
1
1
1
1
1
1
1
1
1
1
1
1
1
1
1
1
1
1
1
1
1
1
1
1
1
1
1
1
1
1
1
1
1
1
1
1
1
1
1
1
1
1
1
1
1
1
1
1
1
1
1
1
1
1
1
1
1
1
1
1
1
1
1
1
1
1
1
1
1
1
1
1
1
1
1
1
1
1
1
1
1
1
1
1
1
1
1
1
1
1
1
1
1
1
1
1
1
1
1
1
1
1
1
1
1
1
1
1
1
1
1
1
1
1
1
1
1
1
1
1
1
1
1
1
1
1
1
1
1
1
1
1
1
1
1
1
1
1
1
1
1
1
1
1
1
1
1
1
1
1
1
1
1
1
1
1
1
1
1
1
1
1
1
1
1
1
1
1
1
1
1
1
1
1
1
1
1
1
1
1
1
1
1
1
1
1
1
1
1
1
1
1
1
1
1
1
1
1
1
1
1
1
1
1
1
1
1
1
1
1
1
1
1
1
1
1
1
1
1
1
1
1
1
1
1
1
1
1
1
1
1
1
1
1
1
1
1
1
1
1
1
1
1
1
1
1
1
1
1
1
1
1
1
1
1
1
1
1
1
1
1
1
1
1
1
1
1
1
1
1
1
1
1
1
1
1
1
1
1
1
1
1
1
1
1
1
1
1
1
1
1
1
1
1
1
1
1
1
1
1
1
1
1
1
1
1
1
1
1
1
1
1
1
1
1
1
1
1
1
1
1
1
1
1
1
1
1
1
1
1
1
1
1
1
1
1
1
1
1
1
1
1
1
1
1
1
1
1
1
1
1
1
1
1
1
1
1
1
1
1
1
1
1
1
1
1
1
1
1
1
1
1
1
1
1
1
1
1
1
1
1
1
1
1
1
1
1
1
1
1
1
1
1
1
1
1
1
1
1
1
1
1
1
1
1
1
1
1
1
1
1
1
1
1
1
1
1
1
1
1
1
1
1
1
1
1
1
1
1
1
1
1
1
1
1
1
1
1
1
1
1
1
1
1
1
1
1
1
1
1
1
1
1
1
1
1
1
1
1
1
1
1
1
1
1
1
1
1
1
1
1
1
1
1
1
1
1
1
1
1
1
1
1
1
1
1
1
1
1
1
1
1
1
1
1
1
1
1
1
1
1
1
1
1
1
1
1
1
1
1
1
1
1
1
1
1
1
1
1
1
1
1
1
1
1
1
1
1
1
1
1
1
1
1
1
1
1
1
1
1
1
1
1
1
1
1
1
1
1
1
1
1
1
1
1
1
1
1
1
1
1
1
1
1
1
1
1
1
1
1
1
1
1
1
1
1
1
1
1
1
1
1
1
1
1
1
1
1
1
1
1
1
1
1
1
1
1
1
1
1
1
1
1
1
1
1
1
1
1
1
1
1
1
1
1
1
1
1
1
1
1
1
1
1
1
1
1
1
1
1
1
1
1
1
1
1
1
1
1
1
1
1
1
1
1
1
1
1
1
1
1
1
1
1
1
1
1
1
1
1
1
1
1
1
1
1
1
1
1
1
1
1
1
1
1
1
1
1
1
1
1
1
1
1
1
1
1
1
1
1
1
1
1
1
1
1
1
1
1
1
1
1
1
1
1
1
1
1
1
1
1
1
1
1
1
1
1
1
1
1
1
1
1
1
1
1
1
1
1
1
1
1
1
1
1
1
1
1
1
1
1
1
1
1
1
1
1
1
1
1
1
1
1
1
1
1
1
1
1
1
1
1
1
1
1
1
1
1
1
1
1
1
1
1
1
1
1
1
1
1
1
1
1
1
1
1
1
1
1
1
1
1
1
1
1
1
1
1
1
1
1
1
1
1
1
1
1
1
1
1
1
1
1
1
1
1
1
1
1
1
1
1
1
1
1
1
1
1
1
1
1
1
1
1
1
1
1
1
1
1
1
1
1
1
1
1
1
1
1
1
1
1
1
1
1
1
1
1
1
1
1
1
1
1
1
1
1
1
1
1
1
1
1
1
1
1
1
1
1
1
1
1
1
1
1
1
1
1
1
1
1
1
1
1
1
1
1
1
1
1
1
1
1
1
1
1
1
1
1
1
1
1
1
1
1
1
1
1
1
1
1
1
1
1
1
1
1
1
1
1
1
1
1
1
1
1
1
1
1
1
1
1
1
1
1
1
1
1
1
1
1
1
1
1
1
1
1
1
1
1
1
1
1
1
1
1
1
1
1
1
1
1
1
1
1
1
1
1
1
1
1
1
1
1
1
1
1
1
1
1
1
1
1
1
1
1
1
1
1
1
1
1
1
1
1
1
1
1
1
1
1
1
1
1
1
1
1
1
1
1
1
1
1
1
1
1
1
1
1
1
1
1
1
1
1
1
1
1
1
1
1
1
1
1
1
1
1
1
1
1
1
1
1
1
1
1
1
1
1
1
1
1
1
1
1
1
1
1
1
1
1
1
1
1
1
1
1
1
1
1
1
1
1
1
1
1
1
1
1
1
1
1
1
1
1
1
1
1
1
1
1
1
1
1
1
1
1
1
1
1
1
1
1
1
1
1
1
1
1
1
1
1
1
1
1
1
1
1
1
1
1
1
1
1
1
1
1
1
1
1
1
1
1
1
1
1
1
1
1
1
1
1
1
1
1
1
1
1
1
1
1
1
1
1
1
1
1
1
1
1
1
1
1
1
1
1
1
1
1
1
1
1
1
1
1
1
1
1
1
1
1
1
1
1
1
1
1
1
1
1
1
1
1
1
1
1
1
1
VECTORS v double
-0.73343421 5.4537236 0
4.5461156 -10.045754 0
9.1329646 2.4275482 0
2.3672896 -15.128633 0
2.0336637 -0.089456968 0
4.1654241 -9.2213926 0
1.7480699 -3.1019962 0
4.3225268 1.8153673 0
-4.7745992 3.8616528 0
5.0299241 -0.58305181 0
1.7160823 -7.0286855 0
2.7441713 2.2557052 0
1.012641 1.1723992 0
7.4246004 -1.2499028 0
2.1221496 5.7792058 0
6.2639042 4.4149375 0
6.010595 6.074938 0
3.3221335 12.740234 0
0.37100002 -0.50935438 0
-8.8018757 0.28418334 0
4.7362933 7.4981119 0
-3.8473936 10.945854 0
-0.55948418 7.6522383 0
-5.537018 7.8499138 0
2.2666548 1.739555 0
2.6309649 -13.726701 0
-8.7493955 -0.63382527 0
5.366351 -9.5869317 0
4.8778516 -4.2732671 0
1.1561677 -1.0818631 0
7.476053 -2.5699768 0
-7.068699 0.20117859 0
2.1170254 8.6392972 0
7.7805264 -1.1194233 0
2.3219381 5.6372469 0
-6.5023361 -6.5415174 0
10.570933 -9.5992628 0
9.8390781 -8.4071478 0
3.8760249 9.4957451 0
-4.393512 -2.0543494 0
1.5448057 -0.74094882 0
-7.8886479 13.826875 0
0.50745874 1.4516088 0
-7.4550035 -3.5945075 0
-3.6103946 -0.93604303 0
-0.25601045 5.9476501 0
7.3909348 8.7579528 0
5.3944792 9.5804816 0
5.2373491 3.480667 0
2.630965 13.726701 0
2.495803 -13.788839 0
0.41326413 5.8676335 0
12.006331 2.6423005 0
-4.2232483 -11.020087 0
-4.4364846 -7.7839232 0
-0.36889984 2.4239899 0
0.25328052 7.9702114 0
-18.023751 4.5287383 0
9.6864769 -1.6888875 0
-4.6629499 -10.641189 0
-6.3410914 -8.5671593 0
-2.707818 10.724798 0
-3.5807088 -12.07934 0
-1.2465268 -2.2324289 0
-6.761929 0.48912891 0
12.978482 -0.53455751 0
-6.6184648 12.474831 0
-2.3697672 2.3584955 0
10.530415 13.102409 0
4.3827968 3.5142558 0
7.1317603 -3.2812758 0
-2.1195909 7.3662744 0
-9.4325845 2.6529927 0
-0.18949575 -2.006984 0
-0.18695381 9.482527 0
0.039177684 -3.6120133 0
6.8350487 -10.617898 0
8.0327579 -5.143594 0
0.63377133 -17.442634 0
7.9006819 -1.6000045 0
-0.5767453 3.6549083 0
-3.2371692 -3.7833892 0
3.8662285 -5.2697986 0
8.2754253 -1.5439595 0
-3.3314377 -9.5729062 0
1.8032776 3.296289 0
-10.596631 -4.3093192 0
-0.60477128 -5.118829 0
-7.5954073 5.7796714 0
-9.8581225 0.80628822 0
-5.5301887 -0.68569978 0
3.9647297 -8.9470603 0
4.2363598 -4.2320064 0
-7.3135368 11.848975 0
-5.6114523 1.0124001 0
-10.162474 9.7885163 0
-8.8966997 0.39120394 0
15.838596 7.268353 0
6.8350551 10.617903 0
1.5131665 9.1671211 0
1.6633901 1.1162495 0
5.3770042 -14.67669 0
-4.1957912 -6.8535367 0
-6.0403823 -10.612652 0
4.1591852 -1.7787773 0
-1.9108451 -5.6111626 0
0.29865953 -8.0791914 0
-6.447661 -3.7935853 0
-3.6323491 3.2745811 0
7.9819846 8.3998089 0
-3.2662182 2.2479701 0
-4.2036869 0.90665008 0
-12.625264 9.9252961 0
-2.196278 -5.2433684 0
-3.4905134 -8.3814081 0
10.221915 10.196785 0
-4.8117093 7.4457082 0
4.2448662 4.4307107 0
1.8161755 4.6912407 0
-3.8846556 22.879929 0
-1.0964084 -0.40941808 0
-5.8559031 1.3291104 0
9.6330137 -1.0782779 0
-1.1653356 3.7715348 0
-1.7448854 7.8811556 0
0.93123503 -6.3380587 0
-1.99609 -10.9276 0
-1.8601937 -17.242485 0
10.703245 -7.8288769 0
2.4690454 8.9792879 0
-2.0537282 -7.7382078 0
1.5058854 1.5820004 0
3.1035739 -9.1940373 0
0.97920915 -12.256227 0
4.2015578 0.6162881 0
-0.44982997 -16.167552 0
9.869024 7.6324058 0
1.3976293 -13.65001 0
9.8805411 -0.27208261 0
-5.8207071 5.8703667 0
2.1310191 -1.4131494 0
-2.9870648 3.1812271 0
2.0079124 1.8711651 0
7.5369026 13.169841 0
4.4765297 11.367352 0
2.8008382 5.6939496 0
-4.5756407 -8.1246075 0
-2.2745388 0.99257874 0
-1.9955134 10.927644 0
1.1148214 6.326405 0
9.6771804 -8.5055893 0
-3.695573 -4.4451307 0
2.3464837 -13.302698 0
-2.7292246 -2.405862 0
-3.5030667 -10.358397 0
-2.8595006 -11.971677 0
-5.1813387 4.1411225 0
17.139243 -11.913326 0
-1.1451788 -1.8737875 0
-7.2027416 -11.372207 0
-7.4331126 3.680893 0
-3.0045869 -5.5407999 0
-2.55419 -1.4156816 0
8.5414605 4.6487369 0
1.2753271 2.9493072 0
-7.0327961 -5.4617444 0
-7.0981547 5.185768 0
-5.3828345 2.3807874 0
-9.5400686 -4.9821069 0
-0.32986427 12.914792 0
1.6433315 4.6397587 0
-10.493274 15.136529 0
-7.00708 8.2969692 0
-7.9591408 2.5088058 0
5.901923 0.25572988 0
4.8370531 -9.9977527 0
-14.46688 -9.6568685 0
3.4893345 -11.372607 0
4.499961 8.9041843 0
-1.5118876 -13.517665 0
0.58357649 -2.024642 0
8.1915398 -7.685227 0
-12.922355 1.7758514 0
-9.9384761 -1.2880008 0
-9.3206851 6.6054639 0
-10.122048 11.335968 0
-10.73028 3.5166434 0
-0.021626295 9.5304247 0
-2.3420322 -3.3472922 0
7.3865807 -2.8287848 0
5.5419764 12.332011 0
-2.8237872 1.0739314 0
1.7570111 1.0688489 0
-3.0643794 -7.4179586 0
-0.10225449 -0.67758809 0
3.1184677 4.5651714 0
1.8822967 10.266881 0
7.6215055 13.616309 0
0.48087234 -2.8935622 0
4.8370532 9.9977527 0
12.380297 -13.468556 0
9.8275684 2.5926434 0
-5.0466888 -9.2247008 0
2.2189181 17.933569 0
-2.6552729 1.4859775 0
-9.3985503 -7.7136304 0
12.562307 4.8924061 0
-3.9674176 8.9065019 0
2.3469352 -6.9433343 0
4.9220549 3.9641388 0
1.0017131 -0.80432988 0
-12.45484 -3.3394086 0
-2.4078161 9.0630602 0
14.274702 14.006137 0
-8.5761389 -1.3274943 0
6.8549532 -3.9852793 0
4.3230191 10.839933 0
-0.91949469 8.7954991 0
-13.0605 8.789087 0
-0.77456771 5.9214718 0
3.4502138 9.2466413 0
5.4672126 2.263418 0
-1.1606131 12.16709 0
-1.1222923 9.4226301 0
4.3385012 11.870424 0
-5.8708963 1.5966196 0
-3.9286219 -8.2446615 0
-2.4934993 -5.6037306 0
-1.3611138 -0.9860172 0
-4.1220471 -1.1332227 0
-2.0488556 -13.992689 0
-11.112182 2.6723302 0
5.4656918 7.3266553 0
-4.1859886 0.99904145 0
-0.058512903 -1.4415412 0
-10.478968 -5.7569601 0
17.550058 -4.0798912 0
-0.27663817 -7.5438999 0
11.503397 -1.245216 0
1.5506191 -5.4386057 0
-10.055773 4.8372726 0
-17.395851 -4.6177717 0
2.7378922 7.8265103 0
5.8981244 1.7313166 0
0.059297425 1.8957498 0
-8.6094321 4.3376177 0
-8.5863548 -1.8333268 0
3.952526 20.756288 0
-7.3918347 15.261454 0
-2.5443654 -2.2075733 0
11.443302 -1.9774306 0
-0.18457758 -6.4005933 0
-4.1775077 -6.7331678 0
-2.5415174 -13.237221 0
-14.892275 -6.4976654 0
10.114707 3.5200103 0
-4.8521901 2.1507422 0
-4.7654229 -7.1578134 0
-5.4418768 6.8949131 0
1.6282551 3.3308316 0
-0.38062372 3.6482562 0
-11.748304 14.788402 0
4.2826251 -10.426244 0
9.0537105 10.399274 0
0.792195 -13.56413 0
16.81447 9.3115112 0
-1.7608208 6.2559164 0
2.9893178 0.56367674 0
-8.0883904 4.6452187 0
13.372739 -3.6037724 0
-11.117514 7.7663266 0
1.9609171 -0.92162697 0
-3.4796526 -5.7444977 0
3.674169 1.0139861 0
-3.7768072 11.829753 0
-3.3525169 0.21881835 0
-3.6836587 -2.8650666 0
6.7840912 -9.8413691 0
-5.8804137 -11.633084 0
-7.8786701 -28.277848 0
1.2491297 -6.8368115 0
0.69341597 -1.7864284 0
6.602648 4.6070275 0
11.267217 -8.5681943 0
-6.0503155 -3.5661438 0
16.603669 -1.1359409 0
0.42371731 -0.27245268 0
4.57594 -6.1591191 0
-0.20221961 2.2591074 0
3.9686092 -1.4247925 0
12.585313 4.3749708 0
3.9913755 -1.7179204 0
4.6774754 2.4913536 0
0.50951441 -0.34280199 0
10.033823 6.1798217 0
-2.8848645 17.014311 0
-0.93128986 1.6963212 0
-10.282324 -2.9857009 0
0.62281301 14.902264 0
-4.1885078 11.340829 0
4.3546508 -8.3606513 0
7.7964353 -8.9471118 0
-0.62981966 -2.3748699 0
2.1746446 -0.019076419 0
-1.4773035 -10.445467 0
-3.6951437 -10.107802 0
-0.94089057 -0.88593346 0
-3.253509 -2.6821745 0
0.90823556 -5.0893048 0
12.541244 0.78501307 0
-17.081104 3.2331388 0
8.8947058 -6.6991426 0
-7.1461373 -0.43177293 0
-6.7582465 9.1115928 0
3.7991388 7.4556454 0
5.8032008 7.1050081 0
2.6571409 3.6781205 0
-2.4847357 -6.2819833 0
-3.5976758 13.426736 0
10.07878 4.7479627 0
-12.64233 0.38757267 0
-8.943767 1.5580659 0
4.1132869 3.7326624 0
0.99538618 10.683072 0
-1.1739095 13.039907 0
-0.64354085 -9.7127258 0
-7.2557787 -5.8350794 0
-4.4001641 -5.2535159 0
-1.9291816 2.9084087 0
-8.3254061 -5.8993122 0
-2.3632066 2.3633468 0
-7.0608023 2.9926653 0
1.1534113 -6.464661 0
0.54087061 -0.07205309 0
-10.388952 13.561764 0
-5.2338389 -6.4628491 0
-3.2763453 -6.3138963 0
12.064968 10.045957 0
13.384701 0.00090861702 0
2.1799138 5.5932786 0
4.4747877 0.69573288 0
5.3766281 2.1918517 0
-11.565266 6.0688957 0
-16.376619 2.1996223 0
6.4028483 -6.1765981 0
-3.4909759 2.2446896 0
2.9400938 3.9797192 0
6.153425 13.64705 0
0.70429432 8.7878801 0
-7.5930951 1.7809376 0
-3.1194922 -11.667098 0
-1.7847835 -5.8236007 0
-4.3986924 3.460971 0
-7.8240549 -5.5155352 0
-10.405073 -8.9516902 0
11.844609 -1.753109 0
-0.35954202 -2.2117151 0
-1.1675759 -5.5300237 0
-2.5060442 5.0224621 0
-8.1637634 8.2278679 0
1.2054402 -11.830536 0
-1.9791848 -8.2670393 0
-2.4101973 -2.2272532 0
-0.256929 -0.50551288 0
-2.60683 1.0186471 0
-6.1199883 -0.85553735 0
-0.0085174608 1.3958631 0
3.2852777 -9.1588435 0
-7.6877529 -5.4560143 0
4.9317558 13.297688 0
2.6868777 0.54787011 0
-9.6654467 0.34712683 0
3.8337475 1.0490644 0
0.35042316 11.677125 0
2.5685974 12.577102 0
-1.5614098 -6.7379919 0
-1.0125875 0.29575758 0
-8.3103943 -3.6111538 0
-6.5362427 -3.7946744 0
-7.1302098 -4.1079375 0
9.8813031 0.9665645 0
-1.4893856 6.2818026 0
10.250603 -3.8664964 0
7.6014988 -9.1355 0
5.7756952 -2.5298643 0
6.0999266 -1.1303915 0
0.21134556 -7.6770575 0
7.8933402 1.507038 0
8.4271591 -1.3930212 0
19.537114 -3.9761708 0
9.6696442 -7.2589239 0
0.086117826 7.2993114 0
-3.5908832 10.42453 0
5.5860791 8.0874315 0
3.5340898 -1.1092858 0
6.4942774 -6.3151926 0
-1.676914 -0.81348406 0
-12.433493 -0.0026887897 0
2.8146491 -7.4994545 0
-2.3285839 7.6351526 0
10.172859 -11.218469 0
-12.007573 3.6092464 0
-8.0688904 -7.3333515 0
12.245053 10.975826 0
-4.4588403 6.6279332 0
-8.0828248 -5.0939482 0
-1.6610479 -4.1793104 0
11.645679 3.528744 0
3.2615932 -11.266572 0
8.320183 -2.631662 0
-13.020413 -1.3040828 0
1.761804 1.6462821 0
-1.9978363 0.19894968 0
-3.5253794 2.4484456 0
-2.6887848 -4.3450901 0
2.6744883 11.734116 0
1.6246488 9.9853636 0
-12.39017 -6.0614268 0
5.9098031 -2.6211365 0
-1.5897204 9.5514556 0
-4.496224 -5.6187441 0
4.7489985 -2.4995061 0
-1.3817521 10.133233 0
-1.860132 2.6483329 0
-8.8638332 12.7773 0
-9.363883 -16.072095 0
-3.9649371 2.6844668 0
-4.4130038 -15.211559 0
0.28341137 -3.6488963 0
-7.430642 0.17254862 0
13.822622 -0.66982919 0
11.087264 -7.9519638 0
4.5468048 0.85321016 0
-5.7698208 7.2976461 0
18.655311 2.2319933 0
0.014566792 6.4778168 0
-4.4156234 14.363919 0
7.5816885 0.4183291 0
14.25358 -1.7821593 0
-6.9412799 5.5491783 0
-6.9148633 5.3517739 0
9.198867 6.255294 0
-3.789096 -0.16937247 0
2.2912155 -4.4381954 0
-1.9708898 2.0635514 0
14.346681 12.774952 0
-6.1875232 1.200167 0
-1.706094 10.823014 0
6.2199181 1.830978 0
-1.7010203 6.7982085 0
-0.59459493 -4.5384585 0
-6.4506839 -10.207169 0
-9.6077478 -5.5102419 0
7.3438943 0.76501904 0
3.4089309 7.1718417 0
0.63872959 -3.3164511 0
7.6127333 -8.4603973 0
1.4613044 -6.6674742 0
-4.2383923 3.2050861 0
-1.0761335 -0.097196139 0
-6.1328924 -13.153185 0
-2.5393814 -2.5268322 0
4.0050644 7.1638492 0
12.321989 -5.9551643 0
-2.8967235 0.084043914 0
11.551531 2.8754537 0
-6.4793699 0.72021688 0
5.5381671 4.704082 0
5.0739675 -0.56044906 0
-6.8336397 3.7794551 0
-8.5319009 9.7161405 0
1.6298153 3.6419717 0
-7.1416002 9.8694632 0
-6.7547777 10.612127 0
5.6839676 9.3058988 0
-10.039919 -1.6413369 0
-5.1119801 -5.3697557 0
-7.0592632 -5.7346375 0
-8.9767608 -6.1674146 0
8.2637031 -7.9403701 0
-14.290061 -3.6567869 0
4.4577825 -1.1977615 0
5.4049163 -5.1566118 0
-10.947702 -0.69001629 0
6.5335665 12.802526 0
-0.4458797 -2.6339801 0
13.236013 -6.8990702 0
-0.22602557 1.8581956 0
-1.3777482 5.968922 0
3.266888 -7.07802 0
19.689494 -8.649431 0
8.5186138 -0.95354579 0
11.351829 1.7780944 0
1.1578589 7.0589425 0
3.4451551 -4.0435403 0
-7.4067506 15.173616 0
8.4208605 5.3990378 0
-1.8900086 2.3458665 0
-6.6542136 3.7198008 0
-1.1900265 1.2900234 0
-3.1663588 -9.8869749 0
-5.3221969 -1.6174315 0
2.2690193 2.5994049 0
-2.5102132 -8.8719959 0
-0.038233376 13.537551 0
2.3405015 -4.773618 0
-0.87190744 -7.2507056 0
-12.751913 -5.925602 0
8.6325159 -4.4551293 0
10.058855 0.17676465 0
15.671773 -5.7336745 0
-0.59941752 1.5973723 0
10.676527 0.63279148 0
-8.5982436 -3.8729841 0
0.99356544 5.1346545 0
10.106353 -0.1050897 0
9.2375279 -6.6778196 0
-6.7190418 -4.0616358 0
1.340243 5.3969633 0
-0.52721341 10.508939 0
4.576778 10.14733 0
0.72161204 5.3890656 0
-8.8885814 6.9861515 0
-9.9137628 -0.40270375 0
-7.2351001 -1.9784712 0
-9.9294387 -0.2827987 0
-4.2455582 -6.7689728 0
-6.0385182 1.7296795 0
6.9823773 -8.5700971 0
5.111717 -4.0532158 0
3.619903 7.5772317 0
6.7534064 -1.5437985 0
9.003607 5.1485016 0
9.4906856 -0.13234246 0
9.3330616 -0.059443232 0
5.3776903 2.1786578 0
3.0700581 -10.740059 0
6.374352 12.357297 0
2.9236503 -7.2709465 0
10.455145 -0.16763359 0
13.956137 -0.10597629 0
5.6884048 -1.937807 0
8.8912534 -5.3801509 0
-1.6953084 11.941444 0
-9.051996 1.911264 0
-11.90365 2.392368 0
-7.8185432 0.97168363 0
-3.2117444 -3.0515063 0
-10.172819 -0.050873618 0
-9.4319436 5.2748099 0
1.1013231 -11.187204 0
-3.4180458 1.9319106 0
-1.1262743 -8.2932612 0
3.2674768 -4.9038165 0
3.2788536 7.2140104 0
2.7625352 0.4886884 0
13.743258 6.9097091 0
5.4832509 0.19364015 0
9.9940074 -0.053186096 0
9.9930686 -0.00086670811 0
9.9856741 0.0047569693 0
10.05536 0.071979124 0
9.0456685 -11.23641 0
10.002731 0.03543275 0
9.9996531 0.0015817294 0
9.7588391 -0.0061192786 0
9.9082614 -6.0852368 0
10.034607 -0.037470629 0
11.621944 -2.3102452 0
-4.2828071 -5.2982898 0
-0.55804385 0.53418984 0
-5.8927169 8.2876891 0
-2.5834424 1.4513419 0
-8.9692709 6.0623373 0
-11.928262 3.1593293 0
-6.5703542 -8.4617899 0
-10.753056 -6.9127948 0
0.85575195 4.8777573 0
-2.1974018 -12.214745 0
-5.2136041 -1.3369776 0
9.9021856 -1.1991805 0
10.056322 4.6601456 0
9.9881804 -0.0090680287 0
9.9998231 -0.00053409804 0
10.000502 -1.1129816e-05 0
10.000506 1.5005488e-05 0
9.9992431 0.00061114888 0
10.005328 -0.0014661038 0
10.000887 0.00064506793 0
10.000518 2.232894e-06 0
10.000403 6.0537182e-05 0
9.9994625 0.00055383141 0
9.9236791 0.04005721 0
6.5115868 0.012937749 0
9.9295399 1.2250013 0
-4.3111017 2.3681006 0
1.3271147 8.4324397 0
-11.131731 -0.2398087 0
-3.1238251 -5.1311057 0
-0.15704768 3.9608871 0
-3.1490774 -0.67360038 0
-2.2411602 -2.2090738 0
-10.244816 0.58806022 0
-10.250912 -6.3608425 0
11.718903 1.1741349 0
9.8363549 -0.060669941 0
9.750454 0.1112041 0
9.9903253 -0.0023025426 0
9.9915081 -3.0291175e-05 0
9.9915298 3.9005805e-08 0
9.9915291 5.0820401e-07 0
9.9915211 2.4807094e-06 0
9.9915457 -3.7267703e-06 0
9.9915284 5.1625581e-07 0
9.9915249 -2.4236936e-06 0
9.9915276 8.0833437e-07 0
9.9915127 6.99416e-06 0
9.9915196 0.00011503746 0
9.9808952 0.0025293427 0
9.8735768 0.048161664 0
10.418116 -0.22995452 0
-7.0795349 -1.2140122 0
-11.649857 1.0246312 0
1.843208 6.5404689 0
-9.4391987 -1.4896183 0
-18.417683 -7.131928 0
-1.6385201 -6.4095122 0
-0.6125912 -12.026806 0
8.6357197 0.64985134 0
-5.1030878 -5.0499227 0
-11.525444 5.6892747 0
-8.5508794 -2.0551666 0
4.0591996 1.5173471 0
10.486685 5.9683334 0
0.13392624 2.8320461 0
0.29096148 -5.557975 0
-5.2177226 -4.9149085 0
-2.0160329 14.850533 0
2.3198064 7.0399663 0
-4.0726686 5.1843396 0
3.0730312 -12.562849 0
-5.8862238 -6.1385935 0
-11.634174 2.881509 0
-10.427 1.0921504 0
6.7537343 -3.1742436 0
0.45011196 -2.3870499 0
1.7964505 14.341674 0
-1.4474387 2.7502477 0
3.855205 6.4249769 0
3.7471129 14.021974 0
-2.6309649 -13.726701 0
-7.0841239 -13.39951 0
-5.3659093 -9.6140118 0
2.2677002 -6.062836 0
0.54824289 -7.9696832 0
11.526992 -10.122706 0
-1.1958676 -5.2159501 0
-11.945079 -0.10795583 0
0.25525662 11.581047 0
-1.4978467 7.4093421 0
-3.3914551 1.397919 0
0.71318009 -6.3239653 0
-9.6484033 5.1434222 0
2.5711909 3.6838407 0
-0.18277059 0.52457976 0
-7.6857011 -9.9953133 0
9.4388073 -0.4398986 0
-12.106244 3.8534718 0
-0.19288489 -3.5476905 0
0.99783112 11.921454 0
-2.0943558 -4.6776628 0
0.31198802 -2.0909052 0
-8.0750256 11.908449 0
2.3167608 14.319004 0
-2.630965 13.726701 0
0.30338159 -9.4766731 0
-5.7287391 0.21668179 0
-1.3716259 11.923078 0
-4.6080566 -16.365443 0
13.048989 -0.8787728 0
-3.7558047 -10.982438 0
6.9289263 -1.0444052 0
4.345365 -0.28521794 0
-13.755285 -4.536055 0
1.765894 -10.227761 0
-5.5783087 4.621587 0
-4.4347058 -7.5625868 0
11.268439 5.0922282 0
7.7240112 -7.1312843 0
14.898621 5.8899367 0
-5.3748895 -13.04759 0
8.9546723 8.0821226 0
-2.9420958 2.1650628 0
-4.9292196 4.3170409 0
-14.15656 -3.8202958 0
-0.39248191 11.528932 0
10.570714 -6.1516544 0
-3.992449 3.3159954 0
-7.7454458 5.5085096 0
-4.604226 13.770127 0
-4.5839836 -8.7780027 0
-6.8350487 -10.617899 0
1.2445148 -5.860721 0
9.2595724 -10.806013 0
1.604604 1.1211048 0
12.470461 2.5670649 0
2.0411065 -8.7542534 0
2.1856698 2.055766 0
-3.0877679 -4.9806431 0
-2.7638198 2.9575904 0
9.9026823 -4.8405606 0
-1.5125368 -0.88794021 0
2.8447853 -4.3695105 0
-4.70126 -9.1456351 0
-3.637673 -2.3860577 0
9.9360179 5.4646668 0
4.8176694 4.0005648 0
0.29641416 -0.13611714 0
1.5165291 6.4065657 0
-1.1910245 15.099299 0
1.0002524 -2.5162334 0
-0.57900963 4.8890833 0
11.347932 8.6132192 0
-6.8350545 10.617888 0
-0.80530319 3.3464519 0
-0.51118507 -5.0693991 0
-11.003687 -5.2224083 0
-0.47718698 -3.2419414 0
-0.92565004 -15.161073 0
-4.5323472 -0.81150864 0
4.6132342 -14.233785 0
-10.125488 -7.3952468 0
2.1566168 -1.4152969 0
2.7320685 1.5604144 0
4.3034273 1.262482 0
12.068894 -8.2675477 0
1.950068 0.84074061 0
13.804194 -0.0087024847 0
-1.3040269 2.9342445 0
0.79107377 -2.5449314 0
7.301467 1.1838636 0
2.6159349 -6.3066354 0
-11.139429 6.7975361 0
4.2797802 -2.7660767 0
3.2355486 -4.0178584 0
8.0478405 1.9295883 0
-0.65536783 10.849947 0
-2.4743905 15.50092 0
-10.788959 2.1854695 0
-1.1832814 -2.2908539 0
-1.213438 -6.2737587 0
1.9959984 -10.92721 0