# vtk DataFile Version 4.0
hesp visualization file
ASCII
DATASET UNSTRUCTURED_GRID
POINTS 1250 double
34.481339 4.777884 4
30.806567 0.87421845 4
34.005381 5.2794966 4
30.879199 3.0273143 4
29.732741 5.192236 4
30.741362 7.2423562 4
31.395085 7.5184096 4
31.712416 9.0372767 4
30.381228 10.168614 4
30.325205 11.223437 4
29.4399 12.801054 4
31.500238 14.294175 4
32.275867 15.752921 4
31.469272 14.885591 4
30.324039 16.856453 4
30.323788 17.957661 4
30.694395 19.042997 4
30.106709 19.568493 4
31.526741 19.889539 4
30.418917 19.949676 4
32.728763 22.663765 4
33.032087 25.769103 4
35.681034 23.961711 4
30.93948 27.937846 4
33.30962 26.800527 4
30.204683 -8.2323106 4
33.690966 1.9719244 4
31.182964 -0.96233288 4
33.127907 5.0952002 4
34.713008 5.6850399 4
30.350399 7.4015629 4
31.094335 6.8618463 4
31.034786 10.155518 4
31.849977 10.137125 4
31.002325 11.225976 4
31.826324 11.89418 4
29.794375 12.854027 4
30.037241 14.718802 4
29.738423 16.377636 4
31.001616 16.817736 4
31.002313 17.962602 4
31.917049 18.766628 4
30.745161 18.379828 4
29.946018 21.611499 4
30.656589 22.166786 4
31.221275 23.596607 4
30.477769 23.731318 4
31.18857 30.143377 4
33.695113 27.20209 4
30.204683 37.416324 4
31.832895 -0.55243571 4
33.158032 4.3698454 4
30.082792 6.3248918 4
32.413782 5.6052025 4
31.947387 4.446159 4
29.746683 8.8982056 4
32.247118 11.740079 4
32.881459 9.0696156 4
32.116051 10.079785 4
31.749026 11.14303 4
30.753585 12.602913 4
32.922618 14.066741 4
32.953054 16.145533 4
32.822073 14.965508 4
31.652957 16.854254 4
31.907622 17.712609 4
32.057146 19.100717 4
32.104875 21.870419 4
32.195993 18.186677 4
30.98845 19.174799 4
32.233897 23.690432 4
34.51403 24.456881 4
31.549814 24.486175 4
33.490969 25.42122 4
31.834104 29.733849 4
31.575636 -2.0939767 4
31.128909 -4.153785 4
31.666907 3.0905337 4
33.70879 3.8378141 4
28.732437 5.9609124 4
31.283322 8.9278758 4
33.290814 8.7884048 4
31.144058 9.7753735 4
32.961644 12.06058 4
33.179341 11.222499 4
32.554879 11.532415 4
30.958078 13.158263 4
30.057287 14.10784 4
30.960082 16.026707 4
32.01692 17.027096 4
33.180128 17.961859 4
34.051206 18.659071 4
31.52145 19.278926 4
33.195574 20.265723 4
30.218866 23.519771 4
32.040022 24.500779 4
33.954477 25.64946 4
31.613354 26.077306 4
31.128912 33.337799 4
31.575637 31.27799 4
32.486457 6.6114071 4
31.738491 4.2083695 4
31.263127 0.87406539 4
36.170271 3.9094012 4
32.44451 7.5345959 4
31.136029 5.6099394 4
31.983501 8.1981633 4
32.947668 9.4497817 4
32.403187 10.108519 4
33.072676 13.196813 4
32.368148 13.166611 4
32.94949 14.733962 4
32.591336 15.664981 4
32.473601 16.674703 4
32.821573 16.638588 4
33.1701 17.11628 4
32.380059 19.920398 4
32.220733 20.509161 4
31.705947 22.475455 4
31.546418 21.336265 4
31.242404 20.901116 4
34.188627 22.3209 4
31.2081 28.259444 4
31.76503 24.908857 4
34.912184 24.341102 4
30.726857 -1.9911449 4
32.352226 -3.0469566 4
36.222603 4.5233344 4
30.938818 7.789598 4
33.616667 7.1200884 4
31.667122 6.7190082 4
33.434821 8.3478176 4
33.439163 9.3847196 4
33.180877 10.115679 4
35.009582 10.401973 4
33.241518 12.018092 4
33.69646 12.451133 4
33.934795 12.66397 4
34.118315 15.467698 4
34.117042 16.366243 4
33.706515 16.771432 4
33.266318 19.068204 4
32.688728 19.813275 4
32.499653 21.072541 4
31.187928 21.846716 4
33.453496 22.010389 4
30.768801 22.518553 4
34.881628 22.892779 4
32.352469 32.231037 4
30.726853 31.17516 4
31.337141 1.9736581 4
36.512871 3.3664806 4
30.522402 1.6261937 4
33.884655 5.6409423 4
30.895259 5.3014572 4
34.304147 7.1165462 4
35.568063 7.4187541 4
33.388577 9.0180342 4
33.454525 10.099135 4
33.450316 11.224793 4
34.565758 12.491888 4
33.448203 13.903893 4
33.417644 14.651108 4
34.017421 14.671907 4
34.309628 16.896172 4
33.448946 17.958896 4
33.618979 19.896174 4
33.878498 20.044816 4
34.588636 21.595658 4
32.360201 21.92223 4
31.352691 22.321158 4
33.95754 23.99128 4
30.429021 27.469542 4
36.508948 25.817184 4
31.388617 27.210862 4
38.180582 -5.2145936 4
33.588344 2.7795269 4
35.965826 1.9237487 4
33.762422 6.0619861 4
35.151578 6.0113229 4
34.530942 6.2823373 4
34.081001 8.5672182 4
35.898151 8.9563033 4
34.514637 10.110563 4
34.507014 11.224357 4
34.540204 12.129826 4
34.621828 12.889841 4
36.128364 13.592973 4
35.603572 16.455135 4
35.114965 16.798741 4
34.507133 17.95939 4
34.514142 19.074648 4
35.955116 19.909499 4
35.798768 20.426071 4
33.550302 22.370546 4
36.757789 23.536536 4
33.191205 22.557985 4
35.963648 27.258961 4
33.64434 26.495261 4
38.180582 34.398607 4
32.677693 2.4155813 4
32.396197 1.7176234 4
37.086506 1.6903644 4
36.228211 5.9257583 4
36.64151 6.0645881 4
37.023803 6.814673 4
34.770601 8.1580579 4
35.910544 11.080774 4
35.696909 10.141983 4
35.572135 11.437358 4
35.648466 12.470669 4
35.752678 13.468892 4
34.503099 15.746001 4
34.92901 15.275251 4
35.62992 16.836924 4
35.628695 17.959765 4
35.522474 19.018809 4
36.014381 18.001746 4
34.720966 21.213116 4
34.949408 21.818949 4
34.439062 22.182273 4
37.226573 23.924805 4
37.190753 27.516521 4
32.396324 27.465976 4
32.086436 26.050705 4
32.18347 0.91191871 4
34.318973 -2.3063693 4
35.715611 2.5287622 4
35.92044 4.4430086 4
36.238974 7.7423988 4
35.264241 8.6259428 4
36.78133 7.8771278 4
35.519727 9.8429813 4
36.270286 10.140088 4
36.304823 11.22345 4
36.285856 12.264465 4
36.009545 13.1371 4
34.981209 14.073254 4
35.866068 15.959698 4
36.306146 16.836642 4
36.407306 17.836474 4
35.893966 18.983198 4
35.729485 19.259161 4
36.799025 21.21172 4
36.97049 23.257172 4
36.205653 21.503814 4
36.020527 24.632133 4
35.717963 26.650793 4
34.318974 31.49038 4
32.16461 28.225523 4
30.776629 0.30990154 4
35.300827 2.0512153 4
37.090809 5.3317797 4
34.684527 2.9516038 4
38.503382 5.232581 4
36.585448 7.209315 4
36.182121 8.7827139 4
35.939118 9.8403377 4
36.957005 10.103359 4
36.957014 11.224619 4
36.957156 12.358274 4
36.998661 13.64128 4
37.500952 15.271288 4
36.865828 15.887 4
36.957015 16.836991 4
36.957008 17.959394 4
36.957013 19.080842 4
36.026693 19.453643 4
36.224441 20.391312 4
36.625059 21.825122 4
37.255997 24.435971 4
34.797251 26.477797 4
35.68889 24.257462 4
35.279434 27.127747 4
30.790723 28.934272 4
32.889655 -0.028152842 4
35.756856 0.37425153 4
37.378531 8.0101595 4
35.488912 3.681394 4
35.332783 6.4476303 4
37.573138 6.2875922 4
37.376217 7.3110906 4
37.161069 8.9793111 4
37.633114 10.101453 4
37.633533 11.224621 4
37.633376 12.339986 4
37.370826 13.282295 4
37.537457 13.778676 4
37.363669 16.065195 4
37.633534 16.836875 4
37.633532 17.959392 4
37.633215 19.082448 4
37.161067 20.204461 4
37.37285 21.865293 4
38.395237 22.953774 4
37.190494 22.139392 4
35.476907 25.514627 4
37.430705 21.2036 4
35.76088 28.824033 4
32.889681 29.2122 4
33.692081 1.1366057 4
34.555708 1.1107507 4
38.702965 2.7801464 4
39.183228 5.7986788 4
36.483775 5.8005521 4
37.418446 7.0068427 4
38.468876 8.2936374 4
38.283849 8.9802754 4
38.283845 10.102153 4
38.283845 11.224621 4
38.283845 12.347512 4
38.285541 13.508556 4
37.372487 14.74505 4
38.285614 15.674601 4
38.283845 16.83694 4
38.283845 17.959393 4
38.283845 19.08186 4
38.283849 20.204175 4
38.47013 20.89019 4
37.473531 22.163843 4
37.30992 23.26848 4
38.630975 23.503625 4
38.689356 26.378641 4
34.572666 28.091667 4
33.692102 28.047412 4
34.537854 0.19769085 4
37.837563 1.9863851 4
36.276465 2.465881 4
36.642708 4.4045632 4
38.129351 5.5305231 4
38.869699 6.0627308 4
38.486807 7.8585307 4
38.961159 8.9793439 4
38.961224 10.102162 4
38.961225 11.22462 4
38.961225 12.346824 4
38.95928 13.445063 4
38.589671 14.154925 4
38.95914 15.739598 4
38.961225 16.836925 4
38.961225 17.959393 4
38.961224 19.081851 4
38.961157 20.204409 4
38.486801 21.32548 4
38.955641 22.867373 4
37.826177 23.541228 4
36.642663 24.774627 4
36.280939 26.703552 4
37.831666 27.190805 4
34.5383 28.980412 4
37.238203 0.48022446 4
36.183099 1.5495096 4
36.919997 2.669732 4
37.83995 4.6675724 4
39.399795 4.3430866 4
39.587744 7.2715234 4
39.610517 7.857218 4
39.610523 8.9796686 4
39.610523 10.102158 4
39.610523 11.22462 4
39.610523 12.347083 4
39.610525 13.47087 4
39.970695 14.930249 4
39.610524 15.713091 4
39.610523 16.836932 4
39.610523 17.959393 4
39.610523 19.081855 4
39.610523 20.204344 4
39.610516 21.326767 4
39.566862 21.908537 4
38.959473 23.420882 4
37.809701 24.277462 4
36.921473 26.518068 4
36.191191 27.654922 4
37.253692 28.666622 4
37.64822 0.51791888 4
37.464303 2.479053 4
38.907004 5.6230154 4
39.519394 3.5932048 4
40.43521 6.5444518 4
39.815063 6.7345195 4
40.288894 7.8570623 4
40.288944 8.9797131 4
40.288945 10.102158 4
40.288945 11.22462 4
40.288945 12.347082 4
40.288941 13.468746 4
39.81908 14.562223 4
40.28894 15.715274 4
40.288945 16.83693 4
40.288945 17.959393 4
40.288945 19.081855 4
40.288944 20.204301 4
40.288893 21.326973 4
39.814378 22.4474 4
39.913013 24.008096 4
39.446464 25.584446 4
39.197754 23.97303 4
37.337195 26.707088 4
37.637833 28.702408 4
38.181746 1.1277389 4
38.180695 2.2484933 4
41.936934 2.9012805 4
41.636169 5.5380294 4
40.019243 5.5605041 4
40.937059 6.7319425 4
40.937084 7.8573862 4
40.937084 8.9796964 4
40.937084 10.102158 4
40.937084 11.22462 4
40.937084 12.347083 4
40.937084 13.469544 4
40.937814 14.618078 4
40.937084 15.714468 4
40.937084 16.836931 4
40.937084 17.959393 4
40.937084 19.081855 4
40.937084 20.204317 4
40.937084 21.326617 4
40.937101 22.452115 4
41.01448 23.127976 4
41.63495 23.862463 4
41.913678 26.270342 4
38.180855 26.936291 4
38.18175 28.056274 4
39.304322 1.1277373 4
39.30541 2.2482022 4
39.330845 2.7410845 4
40.220945 4.4204445 4
41.139871 5.8586389 4
41.616293 6.7363277 4
41.616393 7.8571434 4
41.616395 8.9796964 4
41.616395 10.102158 4
41.616395 11.22462 4
41.616395 12.347083 4
41.616395 13.469544 4
41.615564 14.576383 4
41.616395 15.714469 4
41.616395 16.836931 4
41.616395 17.959393 4
41.616395 19.081855 4
41.616395 20.204317 4
41.616394 21.326876 4
41.616371 22.447663 4
41.463695 23.410598 4
40.220456 24.760652 4
39.362809 26.412213 4
39.305431 26.935833 4
39.304322 28.056276 4
40.41353 1.1265284 4
40.785363 1.0197996 4
40.426651 3.3670471 4
[...]
POINT_DATA 1250
SCALARS m double
LOOKUP_TABLE default
1
1
1
1
1
1
1
1
1
1
1
1
1
1
1
1
1
1
1
1
1
1
1
1
1
1
1
1
1
1
1
1
1
1
1
1
1
1
1
1
1
1
1
1
1
1
1
1
1
1
1
1
1
1
1
1
1
1
1
1
1
1
1
1
1
1
1
1
1
1
1
1
1
1
1
1
1
1
1
1
1
1
1
1
1
1
1
1
1
1
1
1
1
1
1
1
1
1
1
1
1
1
1
1
1
1
1
1
1
1
1
1
1
1
1
1
1
1
1
1
1
1
1
1
1
1
1
1
1
1
1
1
1
1
1
1
1
1
1
1
1
1
1
1
1
1
1
1
1
1
1
1
1
1
1
1
1
1
1
1
1
1
1
1
1
1
1
1
1
1
1
1
1
1
1
1
1
1
1
1
1
1
1
1
1
1
1
1
1
1
1
1
1
1
1
1
1
1
1
1
1
1
1
1
1
1
1
1
1
1
1
1
1
1
1
1
1
1
1
1
1
1
1
1
1
1
1
1
1
1
1
1
1
1
1
1
1
1
1
1
1
1
1
1
1
1
1
1
1
1
1
1
1
1
1
1
1
1
1
1
1
1
1
1
1
1
1
1
1
1
1
1
1
1
1
1
1
1
1
1
1
1
1
1
1
1
1
1
1
1
1
1
1
1
1
1
1
1
1
1
1
1
1
1
1
1
1
1
1
1
1
1
1
1
1
1
1
1
1
1
1
1
1
1
1
1
1
1
1
1
1
1
1
1
1
1
1
1
1
1
1
1
1
1
1
1
1
1
1
1
1
1
1
1
1
1
1
1
1
1
1
1
1
1
1
1
1
1
1
1
1
1
1
1
1
1
1
1
1
1
1
1
1
1
1
1
1
1
1
1
1
1
1
1
1
1
1
1
1
1
1
1
1
1
1
1
1
1
1
1
1
1
1
1
1
1
1
1
1
1
1
1
1
1
1
1
1
1
1
1
1
1
1
1
1
1
1
1
1
1
1
1
1
1
1
1
1
1
1
1
1
1
1
1
1
1
1
1
1
1
1
1
1
1
1
1
1
1
1
1
1
1
1
1
1
1
1
1
1
1
1
1
1
1
1
1
1
1
1
1
1
1
1
1
1
1
1
1
1
1
1
1
1
1
1
1
1
1
1
1
1
1
1
1
1
1
1
1
1
1
1
1
1
1
1
1
1
1
1
1
1
1
1
1
1
1
1
1
1
1
1
1
1
1
1
1
1
1
1
1
1
1
1
1
1
1
1
1
1
1
1
1
1
1
1
1
1
1
1
1
1
1
1
1
1
1
1
1
1
1
1
1
1
1
1
1
1
1
1
1
1
1
1
1
1
1
1
1
1
1
1
1
1
1
1
1
1
1
1
1
1
1
1
1
1
1
1
1
1
1
1
1
1
1
1
1
1
1
1
1
1
1
1
1
1
1
1
1
1
1
1
1
1
1
1
1
1
1
1
1
1
1
1
1
1
1
1
1
1
1
1
1
1
1
1
1
1
1
1
1
1
1
1
1
1
1
1
1
1
1
1
1
1
1
1
1
1
1
1
1
1
1
1
1
1
1
1
1
1
1
1
1
1
1
1
1
1
1
1
1
1
1
1
1
1
1
1
1
1
1
1
1
1
1
1
1
1
1
1
1
1
1
1
1
1
1
1
1
1
1
1
1
1
1
1
1
1
1
1
1
1
1
1
1
1
1
1
1
1
1
1
1
1
1
1
1
1
1
1
1
1
1
1
1
1
1
1
1
1
1
1
1
1
1
1
1
1
1
1
1
1
1
1
1
1
1
1
1
1
1
1
1
1
1
1
1
1
1
1
1
1
1
1
1
1
1
1
1
1
1
1
1
1
1
1
1
1
1
1
1
1
1
1
1
1
1
1
1
1
1
1
1
1
1
1
1
1
1
1
1
1
1
1
1
1
1
1
1
1
1
1
1
1
1
1
1
1
1
1
1
1
1
1
1
1
1
1
1
1
1
1
1
1
1
1
1
1
1
1
1
1
1
1
1
1
1
1
1
1
1
1
1
1
1
1
1
1
1
1
1
1
1
1
1
1
1
1
1
1
1
1
1
1
1
1
1
1
1
1
1
1
1
1
1
1
1
1
1
1
1
1
1
1
1
1
1
1
1
1
1
1
1
1
1
1
1
1
1
1
1
1
1
1
1
1
1
1
1
1
1
1
1
1
1
1
1
1
1
1
1
1
1
1
1
1
1
1
1
1
1
1
1
1
1
1
1
1
1
1
1
1
1
1
1
1
1
1
1
1
1
1
1
1
1
1
1
1
1
1
1
1
1
1
1
1
1
1
1
1
1
1
1
1
1
1
1
1
1
1
1
1
1
1
1
1
1
1
1
1
1
1
1
1
1
1
1
1
1
1
1
1
1
1
1
1
1
1
1
1
1
1
1
1
1
1
1
1
1
1
1
1
1
1
1
1
1
1
1
1
1
1
1
1
1
1
1
1
1
1
1
1
1
1
1
1
1
1
1
1
1
1
1
1
1
1
1
1
1
1
1
1
1
1
1
1
1
1
1
1
1
1
1
1
1
1
1
1
1
1
1
1
1
1
1
1
1
1
1
1
1
1
1
1
1
1
1
1
1
1
1
1
1
1
1
1
1
1
1
1
1
1
1
1
1
1
1
1
1
1
1
1
1
1
1
1
1
1
1
1
1
1
1
1
1
1
1
1
1
1
1
1
1
1
1
1
1
1
1
1
1
1
1
1
1
1
1
1
1
1
1
1
1
1
1
1
1
1
1
1
1
1
1
1
1
1
1
1
1
1
1
1
1
1
1
1
1
1
1
1
1
VECTORS v double
3.5609548 7.5154719 0
4.6505598 -10.054232 0
4.3422811 3.3323055 0
-7.6375507 -7.0266458 0
-3.3920178 -4.5405877 0
-2.2379988 8.7648634 0
-5.7439078 -4.9856334 0
9.8458779 0.1540606 0
-4.9773023 3.1707133 0
-9.9865706 -0.033457478 0
-12.748294 2.1256783 0
8.6547966 5.0567035 0
-2.1398236 6.6871646 0
8.3121097 -4.9503819 0
-9.9845057 0.68448689 0
-9.9985427 -0.070188783 0
-7.9611333 -9.7752912 0
-2.0833117 -7.7864718 0
2.5222682 1.5723825 0
3.2045088 -4.7270213 0
7.2545441 -5.2405854 0
7.7308395 8.4487638 0
14.213302 -7.3123193 0
6.4508496 7.7197586 0
-4.2709278 8.7109139 0
2.7286914 -13.726701 0
-9.4759825 3.3007082 0
5.4304767 -9.7843857 0
8.6042109 8.3772523 0
11.913045 -1.4113342 0
-11.190335 7.7282843 0
0.50871014 -4.9132025 0
11.143396 4.435222 0
-9.8921226 3.5451051 0
10.001844 0.048627776 0
9.2655627 -3.7284016 0
-5.7262425 -1.9776268 0
4.8501551 9.2042142 0
-9.2343512 4.0031904 0
9.9789174 -0.68364666 0
9.9960909 0.11565097 0
10.285603 -12.158246 0
-2.6640947 -13.259051 0
-6.4989789 -3.5779369 0
-7.8876835 -2.7907342 0
7.6734341 10.59367 0
-8.1623287 -6.5029534 0
5.4443924 9.7801523 0
-9.4386868 -3.4193149 0
2.7286914 13.726701 0
0.1848423 -9.2146453 0
8.2727986 0.88492844 0
-9.8865836 2.2909762 0
2.6454055 0.5598601 0
12.89742 1.4488301 0
-11.388781 2.7217171 0
7.528598 11.637566 0
0.39046097 14.752655 0
8.8516416 -3.310199 0
0.65307333 -2.0660404 0
-9.836026 2.0206151 0
9.3092227 3.5728552 0
-2.204924 12.611839 0
7.0577464 -6.0490273 0
-9.8856403 0.64227025 0
1.4612379 -9.7404374 0
-10.102043 0.27666658 0
-13.437553 3.65066 0
7.1237844 2.5180612 0
12.328292 -3.9384722 0
10.084621 0.44958232 0
8.1878303 3.6923084 0
-0.43682895 5.3924955 0
6.4777931 0.6584137 0
0.19142398 9.1881643 0
-0.50205929 -3.6810543 0
6.8351107 -10.619234 0
-1.3788979 9.2465641 0
5.9770404 -1.0670231 0
-2.5730637 -6.0344405 0
1.092329 9.9150877 0
3.5058528 -2.1107668 0
-8.5603447 5.167342 0
-0.87210753 8.2105544 0
-9.6578889 -0.1152335 0
-0.13793041 -10.617913 0
-9.8850086 -1.8019631 0
-9.8329843 -1.9220468 0
-9.8648281 1.722407 0
-8.0070102 11.426237 0
-9.5990317 0.18829473 0
3.4805216 -4.0921513 0
-5.5442029 -0.47963725 0
-10.045389 -0.20678852 0
8.141748 13.658873 0
-2.1792304 -2.9348862 0
12.456206 4.4249085 0
-2.0716801 -9.4612377 0
6.8351171 10.61924 0
-0.50206046 3.6810546 0
-11.579115 10.765296 0
3.8696897 -2.6212304 0
9.9427911 -5.8185974 0
9.2805998 -4.9660364 0
-9.493978 -7.5179506 0
1.2817168 -12.017222 0
-9.1358839 -5.3360172 0
2.0884889 8.0901229 0
-3.5027745 11.843069 0
2.3303691 14.703478 0
-6.8849389 12.300814 0
-2.0425579 9.8624257 0
8.5950801 1.6740127 0
8.8494417 -2.4508805 0
-9.6858726 -6.2225862 0
-2.9274491 -0.40552355 0
7.8535843 6.1077486 0
-7.9845162 2.2189259 0
-6.2585661 7.2640397 0
-1.8910473 -9.6814398 0
-6.321644 -10.292587 0
0.36165334 -11.865353 0
8.6476054 4.6474546 0
8.1674741 -4.3665402 0
5.6913226 -6.832901 0
-1.117142 -6.3287113 0
-1.9959911 -10.926468 0
2.615791 -8.5471425 0
-10.399493 10.553056 0
-11.791359 5.0709952 0
-3.2555108 -5.6866924 0
13.650926 -4.3674131 0
7.9856106 8.3402732 0
-9.6718261 1.1165538 0
13.439944 -7.1116628 0
-8.7672727 -4.3355269 0
2.6842939 -8.6392544 0
2.3838539 -9.4872562 0
3.2614106 -17.533535 0
3.4479885 7.3941566 0
12.283117 -4.6451421 0
10.176331 -0.26938336 0
-3.3708711 -6.16856 0
-7.8294369 2.8972565 0
-10.002015 -5.1024069 0
-8.1272109 3.9963458 0
-12.007234 1.7890382 0
-10.305818 -7.68888 0
-1.9954028 10.926636 0
-1.1171485 6.3287249 0
-5.8249762 -5.1332718 0
1.8840795 3.424696 0
-6.4019332 -6.8885483 0
6.386354 6.2661526 0
-7.337369 -8.9012417 0
1.0723464 1.7207657 0
11.491798 0.72463006 0
-7.4917575 4.8092279 0
9.6919761 -0.91153225 0
9.6675515 0.13410728 0
-1.3708815 -0.83659374 0
-9.4944241 3.5237473 0
1.8349464 -5.8952013 0
-1.1023299 -12.493194 0
-9.9001564 1.6918539 0
9.5842031 -0.17096457 0
-11.302414 7.6775521 0
15.63335 0.21311543 0
1.3695273 0.96505222 0
7.4785949 0.41206787 0
-2.9206139 -2.7936861 0
3.9686075 -3.9645813 0
-6.8676711 6.5863059 0
1.8690214 -3.4157703 0
-5.0759948 5.2847405 0
4.8370531 -9.9977527 0
-5.9083132 -7.3038413 0
1.7483306 -3.4760831 0
-1.2079838 -1.9488494 0
9.2070613 -3.7515713 0
-8.4569669 2.5358569 0
-5.4244102 6.5311941 0
10.052362 -0.22364854 0
-9.8796993 0.18970439 0
-10.006961 -0.009061304 0
-7.3240382 -16.055153 0
-2.1350309 9.4975643 0
7.9582203 -0.25953816 0
5.9655998 8.9841805 0
12.032031 -1.388199 0
-10.004638 0.00031109876 0
-9.9083356 -0.10619277 0
11.959078 -10.218581 0
8.0948049 -0.28543385 0
-10.18977 -0.45637029 0
7.4542188 -0.76542898 0
-3.5061845 -1.5081429 0
1.7352301 3.4625343 0
-5.5515897 8.1479492 0
4.8370532 9.9977527 0
-1.2930165 -6.4949556 0
-9.8578409 -1.594346 0
-4.1706888 -11.997009 0
0.091836942 7.1566151 0
2.7769082 -2.7333887 0
10.097244 0.48932194 0
-9.3640668 2.5779317 0
5.1330393 4.2617732 0
-3.7271448 8.25364 0
-14.078111 14.416666 0
-9.3107734 3.9699837 0
-4.2129329 5.4452931 0
-5.4392488 7.1629385 0
-6.6722902 -6.3227447 0
-10.02306 -0.044724887 0
-10.060352 -0.011833471 0
-5.5273916 -6.4452288 0
-1.6436566 -9.8153816 0
-9.9819821 -1.0164248 0
-8.0449716 -5.4535965 0
-7.8845636 -5.8996869 0
4.5332506 0.84928012 0
-1.4297163 12.281424 0
-9.8578986 1.5966478 0
-4.2372196 2.9474884 0
1.5033691 -1.20781 0
-3.9332593 -8.2576443 0
2.7076938 -3.4109666 0
-0.75122241 -0.7601547 0
2.5716145 -9.0831495 0
-7.6523826 13.803355 0
-2.4259566 4.9721308 0
-10.229005 -2.059398 0
9.1933557 1.6686587 0
9.8764305 -0.081790305 0
9.281606 -3.3804831 0
0.98375784 -9.9988056 0
-9.6027936 -3.0895861 0
-9.5694818 3.1898556 0
9.9977418 -0.01171195 0
17.984458 -9.4293035 0
-5.0496627 -8.4747477 0
-17.819873 -9.2731904 0
-1.237809 -6.876691 0
7.9002155 6.7016258 0
2.2216555 9.6083243 0
0.11262682 -0.41517144 0
2.7046088 3.3770903 0
-3.9332569 8.2576386 0
1.3395381 0.73004323 0
-11.643018 -4.3254863 0
2.8740276 5.3360364 0
2.32064 2.2812655 0
-7.3161908 -7.2862512 0
10.36394 4.1046563 0
-4.6591108 -4.2940059 0
-7.8637198 0.27323752 0
-11.881454 15.809384 0
-10.002657 0.03760141 0
-10.002949 -7.876526e-05 0
-9.9972723 0.35434338 0
-10.417602 1.6410409 0
5.7977402 -9.4122626 0
-3.4668061 6.2185055 0
-10.002755 0.001576956 0
-10.004683 -0.00040882222 0
-10.001511 -0.031682159 0
6.2099791 0.73231958 0
-7.2038512 -0.42661176 0
-5.0735758 3.0274909 0
-0.17645259 7.272478 0
-6.7231884 8.5232554 0
-6.8438601 2.5275959 0
2.5486937 -5.4458522 0
-11.513234 4.8862512 0
-7.9807077 -7.1904134 0
-9.7686307 -5.4753577 0
9.911193 6.3933368 0
-10.839122 0.14084088 0
-9.7732869 7.2914376 0
-7.1025651 5.0620762 0
-8.6221391 3.0695845 0
-10.001215 -0.0050509663 0
9.9960265 -0.030167047 0
10.001374 1.9930875e-05 0
9.9959066 -0.29547068 0
0.25877558 -8.5169998 0
9.5517687 0.52797207 0
-3.0277923 11.811602 0
10.001237 -0.0026210469 0
10.001345 -2.1021826e-05 0
9.9973045 0.025389874 0
-10.001384 0.0019974869 0
-8.9615614 -3.2554487 0
13.07356 -1.3272653 0
-11.416749 -11.611387 0
-10.945176 0.068333927 0
10.081581 -5.0822157 0
-9.7390128 5.5716516 0
-7.9805212 7.1906467 0
-9.9976015 0.097238 0
-6.2353116 -8.6189185 0
3.594471 1.2872765 0
8.8424531 -4.611728 0
-9.5307613 1.8966521 0
-7.8406985 -8.3680036 0
6.3853905 6.3951713 0
-9.9994995 0.015885094 0
-10.001239 -0.00015343378 0
-10.001264 6.9694717e-06 0
-10.001253 0.013405385 0
-9.9363762 1.233417 0
-9.9403022 1.2476629 0
-9.9340938 -1.2593266 0
-10.001284 0.00030807877 0
-10.001264 -5.521999e-06 0
-10.00124 0.00015542494 0
-9.9995114 -0.002226808 0
6.3967183 -6.394632 0
4.4349459 5.9825443 0
-10.931977 -1.6656484 0
-15.143381 -1.7762126 0
3.5286417 -1.4404078 0
-5.9556657 8.8550297 0
-9.9974798 -0.096762509 0
-11.48093 -4.9483728 0
0.81709912 7.9542028 0
-6.518412 -6.5179035 0
-10.070598 -0.28259213 0
3.3993211 -10.605864 0
-8.4199852 -0.1546853 0
-10.063289 0.10757045 0
10.00147 -0.01582666 0
10.002472 0.00014523793 0
10.002472 -5.0078538e-06 0
10.002464 -0.010965367 0
9.9356179 -1.0207094 0
-8.5942469 -5.6346078 0
9.9321105 1.0480609 0
10.002464 -0.00025407774 0
10.002472 3.030141e-06 0
10.002471 -0.00014706231 0
10.00146 0.0047318083 0
-10.063436 -0.10798704 0
-3.0456431 -9.2481493 0
1.0921109 4.3912787 0
-10.038534 0.25753572 0
-6.482616 6.4321434 0
0.71253577 -8.0257125 0
-11.478473 4.9166204 0
-4.6950807 -7.0747242 0
-8.9255508 -3.7125436 0
-9.7013624 -2.5234794 0
-9.0777683 -5.1375049 0
-4.0304199 -10.260217 0
3.3511905 8.0217718 0
-9.9999592 -0.0038109786 0
-10.000514 -0.00086352296 0
-10.000511 -4.3360861e-08 0
-10.000511 9.9324532e-08 0
-10.000513 2.6715421e-05 0
-10.000424 0.041288693 0
8.1774717 5.8100305 0
-10.000254 -0.043617978 0
-10.000511 2.9122527e-05 0
-10.000511 -9.1705684e-08 0
-10.000511 8.5456082e-08 0
-10.000514 0.00082682373 0
-10.000135 0.0028619225 0
3.0591388 -8.0955829 0
0.91206274 5.4545015 0
-9.8311172 -1.9483139 0
-9.6479106 2.5878013 0
-8.8746988 3.8239727 0
-4.4831845 6.5115865 0
-1.4919687 -7.0056765 0
0.1307946 5.230648 0
-6.3707817 8.7263212 0
-6.5042765 0.095768552 0
3.5223157 8.2111123 0
-9.9751496 -0.030777035 0
10.002489 -0.0049904853 0
10.003339 0.00070871268 0
10.003349 3.9952499e-08 0
10.003349 -2.7375357e-08 0
10.003348 -2.2012884e-05 0
10.0032 -0.033938867 0
-9.6450001 -1.3516069 0
10.002983 0.033828615 0
10.003349 -2.8495327e-05 0
10.003349 3.3894502e-08 0
10.003349 -4.1114933e-08 0
10.003338 -0.00067937326 0
10.002498 0.0057449218 0
-10.010677 -0.033473388 0
-8.6382595 5.6008407 0
-7.2727986 -0.21320267 0
2.1420351 3.0096081 0
-2.7080513 -5.4774492 0
-1.6222953 7.5807112 0
-10.003545 0.0095641202 0
-10.034877 0.071264615 0
3.354325 3.7233611 0
6.1481301 3.4040625 0
-9.9966848 -0.41156294 0
-10.00529 -0.089595856 0
-10.000582 0.0047327857 0
-10.00058 1.3571994e-07 0
-10.00058 1.5260665e-09 0
-10.00058 9.8893077e-10 0
-10.00058 2.7124086e-07 0
-10.000564 -4.4751752e-05 0
-9.972015 0.81283539 0
-10.000595 -2.1883575e-05 0
-10.000581 9.9900086e-08 0
-10.00058 -9.3101627e-10 0
-10.00058 -1.448929e-09 0
-10.00058 -2.0102102e-07 0
-10.000571 -0.005076432 0
-9.9983441 0.090155689 0
-7.5129177 -12.001628 0
5.0631978 1.6305214 0
3.172911 -3.8475351 0
-10.03344 -0.053304784 0
-10.003282 -0.0096941165 0
-9.9999167 0.0097703199 0
-9.993274 0.038863095 0
-9.5156533 -9.0899997 0
-10.019364 -0.38683307 0
-10.259675 5.5381192 0
10.001955 0.067879323 0
10.003999 -0.003860179 0
10.004008 -1.3342705e-08 0
10.004008 -2.1481446e-09 0
10.004008 6.3743577e-12 0
10.004008 -5.4420057e-07 0
10.004016 -1.4068133e-06 0
9.9756483 -0.66244295 0
10.004004 1.6450746e-06 0
10.004008 -6.3027876e-07 0
10.004008 1.0652515e-11 0
10.004008 2.0880344e-09 0
10.004008 -7.9176002e-10 0
10.004008 0.0041217379 0
10.003407 -0.068494888 0
7.0392286 -1.0839247 0
-10.022699 0.36435711 0
-8.9985427 8.9847032 0
-9.9926578 -0.032693164 0
-9.9999257 -0.0097656389 0
-10.698735 -0.17147127 0
-6.3786189 -10.246443 0
-10.001095 -0.0026132136 0
-9.8473949 1.9453901 0
-7.6784961 -7.1509914 0
-10.001166 0.0038214378 0
-10.001187 -9.1460606e-06 0
-10.001186 2.862864e-09 0
-10.001186 1.1003481e-10 0
-10.001186 8.3972946e-13 0
-10.001186 1.8821677e-08 0
-10.001187 -6.4545244e-08 0
-10.001171 -2.721788e-05 0
-10.001186 3.4324815e-07 0
-10.001186 1.8921025e-08 0
-10.001186 1.8195068e-12 0
-10.001186 -1.1719578e-10 0
-10.001186 -2.2593308e-09 0
-10.001187 1.6710662e-06 0
-10.001219 -0.0037325863 0
-9.9950472 -0.36633083 0
-9.854328 -1.9059051 0
-10.000762 0.0027864008 0
-6.6536628 10.525952 0
-10.258783 0.014913241 0
-10.002863 0.010091218 0
-10.015076 0.05105371 0
-9.9942085 -0.035828113 0
-7.0625868 -7.8979964 0
7.5428782 5.6973276 0
10.004335 -0.0030918518 0
10.004352 7.3054773e-06 0
10.004352 7.9355317e-10 0
10.004352 3.871358e-13 0
10.004352 4.444048e-14 0
10.004352 2.6674949e-12 0
10.004352 6.2599959e-07 0
10.004352 -2.9655603e-06 0
10.004352 6.9844487e-07 0
10.004352 1.6116953e-12 0
10.004352 4.6582151e-13 0
10.004352 -3.6469856e-14 0
10.004352 -1.3730495e-09 0
10.004351 -4.1737548e-08 0
10.004327 0.0030881684 0
9.9944071 0.34744761 0
-7.2006865 7.7370337 0
-9.9932733 0.041753252 0
-10.014032 -0.045059603 0
-10.003211 -0.010084253 0
-10.000017 0.0097250119 0
-10.000289 0.00016478751 0
-10.001229 0.019475796 0
6.9788532 6.1602108 0
-10.000671 0.092665559 0
-10.002052 3.9046604e-05 0
-10.002047 -3.482713e-08 0
-10.002047 8.7891042e-11 0
-10.002047 -2.2138877e-13 0
-10.002047 -9.755218e-14 0
-10.002047 -5.9349407e-13 0
-10.002047 1.4560162e-08 0
-10.002047 -8.4141405e-09 0
-10.002047 2.6869881e-09 0
-10.002047 -4.6925785e-13 0
-10.002047 1.4971391e-13 0
-10.002047 -6.822197e-17 0
-10.002047 -1.0092426e-10 0
-10.002047 -1.0368673e-07 0
-10.002047 -3.1568906e-05 0
-10.001464 -0.096503389 0
7.1294814 -6.0274522 0
-10.001364 -0.017170652 0
-10.000253 -0.00013856332 0
-10.000017 -0.0097245704 0
-10 0.0097156932 0
-10.000006 -2.6448176e-05 0
-10.000101 9.7016755e-05 0
-10.07589 0.14429194 0
10.00143 -0.078792315 0
10.002444 -4.2808734e-05 0
10.002445 -4.7012399e-08 0
10.002445 -4.6041798e-12 0
10.002445 2.8697045e-15 0
10.002445 -5.5007076e-14 0
10.002445 -1.4450707e-13 0
10.002445 2.2459388e-12 0
10.002445 -1.9613424e-12 0
10.002445 6.4334482e-13 0
10.002445 7.0448728e-14 0
10.002445 1.0384248e-13 0
10.002445 -1.5829805e-15 0
10.002445 1.8522515e-12 0
10.002445 5.1585117e-08 0
10.002444 3.412002e-05 0
10.001414 0.08187436 0
-10.08048 -0.15643232 0
-10.000096 -9.6829706e-05 0
-10.000005 2.6559457e-05 0
-10 -0.0097156932 0
-9.9999993 0.0097157047 0
-9.9999993 -3.1625304e-05 0
-10.000006 4.9897363e-06 0
-10.000094 4.8457888e-05 0
-10.001821 5.8765423e-06 0
-10.001813 -2.6084903e-07 0
-10.001813 2.2878584e-09 0
-10.001813 1.1566516e-12 0
-10.001813 7.1297192e-15 0
-10.001813 -5.576406e-15 0
-10.001813 -3.0230054e-15 0
-10.001813 2.5333825e-14 0
-10.001813 -4.5513669e-14 0
-10.001813 1.5389484e-14 0
-10.001813 -7.5852015e-16 0
-10.001813 5.761093e-15 0
-10.001813 -7.1515836e-15 0
-10.001813 -1.0325677e-12 0
-10.001813 -2.3656346e-09 0
-10.001813 2.8299654e-07 0
-10.001822 -5.067918e-06 0
-10.000099 -4.9722892e-05 0
-10.000006 -5.1237419e-06 0
-9.9999993 3.1625303e-05 0
-9.9999993 -0.0097157047 0
-9.9999761 0.0097183232 0
-9.9999687 -3.1337419e-05 0
-9.9999684 -7.4960453e-07 0
-9.9999702 7.6526531e-07 0
-9.9999729 5.2660058e-07 0
-9.9999736 7.3676539e-10 0
-9.9999736 5.179575e-13 0
-9.9999736 -4.1656347e-15 0
-9.9999736 6.4668873e-15 0
-9.9999736 -5.5664825e-15 0
-9.9999736 -9.4379287e-17 0
-9.9999736 5.4059845e-15 0
-9.9999736 -5.5407434e-15 0
-9.9999736 -2.3077822e-16 0
-9.9999736 1.1276684e-16 0
-9.9999736 5.7562345e-15 0
-9.9999736 -5.7644819e-15 0
-9.9999736 7.3756656e-18 0
-9.9999736 -4.8419814e-13 0
-9.9999736 -7.6630262e-10 0
-9.9999729 -5.2221142e-07 0
-9.9999702 -7.6748548e-07 0
-9.9999684 7.4960509e-07 0
-9.9999687 3.1337419e-05 0
-9.9999761 -0.0097183232 0
-10.009181 0.0091808302 0
-10.009718 -2.3914654e-05 0
-10.009716 -7.3968277e-07 0
-10.009716 1.1016633e-09 0
-10.009716 1.1855597e-11 0
-10.009716 -1.8526914e-13 0
-10.009716 -2.324685e-16 0
-10.009716 -2.6868205e-15 0
-10.009716 6.3018609e-15 0
-10.009716 -5.4265328e-15 0
-10.009716 -9.6176327e-17 0
-10.009716 5.2479125e-15 0
-10.009716 -5.405711e-15 0
-10.009716 -2.1957063e-16 0
-10.009716 1.1478733e-16 0
-10.009716 5.6140471e-15 0
-10.009716 -5.6186837e-15 0
-10.009716 -1.9900047e-17 0
-10.009716 4.3808615e-16 0
-10.009716 1.8732349e-13 0
-10.009716 -1.1851735e-11 0
-10.009716 -1.1016726e-09 0
-10.009716 7.3968278e-07 0
-10.009718 2.3914654e-05 0
-10.009181 -0.0091808302 0
-3.5074114 7.4491618 0
-5.7184157 -5.3202306 0
-7.4370913 -2.0448526 0
4.9207443 -2.1587209 0
11.203652 1.4208812 0
0.39874097 -0.21050489 0
5.5718674 -7.6248652 0
-8.7826279 -0.33564337 0
5.0528352 5.0100698 0
10.000813 0.16075287 0
8.8141682 -4.7585922 0
-6.4508555 -4.3083 0
3.8440859 8.2029444 0
-8.6748245 5.0834099 0
9.9879094 -0.69052195 0
9.9933039 -0.063764546 0
-10.014728 0.16666686 0
1.1029888 -9.0433084 0
3.6723887 -11.596793 0
-2.4352662 -3.3433568 0
-7.2702641 -5.0841194 0
-5.7080353 8.4657239 0
-14.449446 -6.9003925 0
-5.1883543 8.3820518 0
-3.4914104 10.068635 0
-2.7286914 -13.726701 0
9.4807101 3.3252141 0
-5.4310547 -9.7948345 0
0.40986543 -7.5693562 0
-11.089122 7.6182111 0
8.0386826 -4.877717 0
9.4465897 1.1377624 0
-10.987059 2.9805413 0
-9.9895257 0.16864879 0
-10.00184 -0.17574936 0
-1.7038201 3.3218126 0
-5.0872125 -8.4006127 0
9.6919656 3.6645529 0
10.339041 -4.445127 0
-9.9917614 0.59856863 0
-9.9837921 0.17531996 0
-3.1178631 -15.945301 0
1.9788625 -14.599464 0
-2.6335524 -7.5960995 0
4.5150871 -4.922251 0
-8.6199528 0.5027932 0
7.7071096 -6.4787289 0
-5.4442856 9.7777544 0
9.4274126 -3.4224173 0
-2.7286914 13.726701 0
-0.18468009 -9.2147567 0
-13.576229 -4.4620268 0
-10.378158 7.261265 0
9.0767254 2.7214873 0
-8.6398421 2.5039354 0
-2.3201241 10.431697 0
-4.7327571 5.2153884 0
-1.5900268 1.9270775 0
6.2028824 -0.70411793 0
-4.0676843 14.094689 0
9.2952471 -3.8052836 0
3.1821075 -4.8948979 0
13.285179 3.9467818 0
-9.1291909 4.0365882 0
10.017166 -0.50587042 0
-1.5846358 -9.7737743 0
4.7113877 -5.600878 0
-3.8080404 -8.7537057 0
-7.0067505 2.5737739 0
-4.6836818 3.7045575 0
-10.081187 0.43285229 0
-5.8314704 4.5033407 0
0.45603942 5.3846089 0
-10.855312 -5.2812436 0
-0.19145783 9.1888722 0
0.50205979 -3.6810533 0
-6.8351107 -10.619235 0
4.9978204 8.7939425 0
-6.4020896 -1.4693085 0
3.9294043 5.413397 0
6.0807442 2.5083736 0
3.2289624 -9.8319819 0
4.7084363 6.6487121 0
-11.627243 -5.5618723 0
6.7003756 9.7044123 0
-10.893736 -6.5471576 0
-12.44876 -9.6876424 0
8.5910436 1.7764372 0
9.7903086 -2.2413807 0
-9.9885329 0.43871805 0