# vtk DataFile Version 4.0
hesp visualization file
ASCII
DATASET UNSTRUCTURED_GRID
POINTS 1250 double
33.911602 3.5735864 4
30.315956 2.5082899 4
33.208419 4.4111091 4
32.101822 4.1560128 4
30.275439 5.9199651 4
30.756024 6.7058902 4
31.033207 7.8586513 4
30.117435 8.9817125 4
30.117782 10.102161 4
30.117784 11.22462 4
30.117737 12.349633 4
30.112555 13.498687 4
30.933464 15.02389 4
30.112327 15.684699 4
30.117784 16.836934 4
30.117784 17.959393 4
30.117782 19.081853 4
30.11749 20.204957 4
30.588963 20.659856 4
30.241046 21.233111 4
31.583986 23.389398 4
32.004626 24.742241 4
33.300174 24.851511 4
30.302984 26.687759 4
33.911474 25.610302 4
30.475185 -6.0360384 4
34.101241 1.3597195 4
30.314409 0.60336351 4
31.605091 4.4256144 4
32.942802 6.155892 4
31.507568 6.9904736 4
31.577602 7.6889267 4
31.228963 8.982622 4
31.208428 10.102208 4
31.208093 11.22462 4
31.20811 12.344891 4
31.211077 13.442417 4
30.353844 14.237641 4
31.211206 15.742174 4
31.208093 16.836927 4
31.208093 17.959393 4
31.208391 19.08181 4
31.2285 20.199282 4
31.424638 21.412579 4
31.362791 22.133188 4
31.535587 22.523366 4
31.605704 24.715319 4
30.317806 28.578335 4
34.101239 27.824296 4
30.475185 35.220052 4
31.808788 0.93888439 4
31.979549 3.5564185 4
31.548999 5.6071531 4
31.990053 5.5246267 4
30.542942 5.2549385 4
31.396161 8.263544 4
32.177414 10.129652 4
31.429794 8.8673696 4
31.443765 10.101637 4
31.443674 11.224619 4
31.443654 12.348393 4
31.440336 13.488384 4
32.298106 14.925629 4
31.440179 15.695197 4
31.443673 16.836933 4
31.443674 17.959394 4
31.443754 19.082334 4
31.428754 20.315635 4
32.203024 19.104403 4
30.851009 21.282613 4
30.625218 23.633355 4
33.434482 23.818669 4
31.604293 23.724469 4
31.992982 25.642146 4
31.808814 28.245122 4
31.655485 -1.5048832 4
30.18191 -2.4547012 4
32.218628 3.0265036 4
32.751466 4.0088701 4
30.671946 6.4697239 4
31.059486 7.2895268 4
32.341924 7.9671196 4
32.278144 9.0224026 4
32.677942 10.350588 4
32.534175 11.224618 4
32.534178 12.346134 4
32.534884 13.454379 4
31.632213 14.40851 4
32.534922 15.729964 4
32.534176 16.836929 4
32.534175 17.959396 4
32.712405 18.806171 4
32.241603 20.16245 4
32.352657 21.225825 4
30.585646 21.917478 4
32.033466 24.100201 4
32.739312 25.218949 4
32.214792 26.150381 4
30.181908 31.638714 4
31.655485 30.688897 4
33.875297 4.6906103 4
30.462916 3.5831951 4
30.398588 1.6934605 4
34.695365 4.7204788 4
33.586968 6.6975486 4
31.821362 6.7272187 4
32.742836 7.7970276 4
32.740411 8.9802434 4
32.78822 10.058634 4
32.769835 11.224619 4
32.769832 12.347474 4
32.768967 13.477156 4
33.088268 15.137471 4
32.768925 15.706631 4
32.769836 16.836931 4
32.769835 17.959395 4
32.756221 19.102012 4
32.740438 20.204038 4
32.742678 21.385721 4
31.814558 22.453659 4
32.177201 22.433089 4
34.089491 24.222203 4
30.3991 27.487077 4
30.459409 25.59997 4
34.071219 25.180022 4
30.90623 -0.97867529 4
32.671427 -1.2986476 4
35.4 4.9721912 4
32.14182 6.0756673 4
33.85879 6.6719307 4
32.812121 7.4070608 4
33.859936 7.9010108 4
33.860535 8.9792499 4
33.860557 10.102161 4
33.860557 11.22462 4
33.860557 12.34685 4
33.860619 13.464438 4
33.528019 14.152119 4
33.860622 15.719703 4
33.860557 16.83693 4
33.860557 17.959393 4
33.860557 19.081853 4
33.860535 20.204524 4
33.859933 21.283468 4
32.879478 22.352411 4
34.133144 21.988172 4
32.105481 23.116728 4
35.416559 24.214087 4
32.671576 30.482701 4
30.906228 30.162689 4
31.919823 1.4795588 4
36.231072 2.8052558 4
31.547365 2.7258858 4
32.822358 4.6994866 4
32.685665 5.7887873 4
34.31401 6.7822874 4
34.082948 7.8545223 4
34.096325 8.9797843 4
34.096439 10.102158 4
34.096441 11.22462 4
34.096441 12.347148 4
34.096351 13.471391 4
34.094263 14.780622 4
34.096345 15.712569 4
34.096442 16.836931 4
34.096441 17.959393 4
34.096439 19.081855 4
34.096328 20.204296 4
34.083082 21.329506 4
34.06385 22.461979 4
32.903741 23.16914 4
33.108283 24.667447 4
31.527442 26.437255 4
36.230339 26.378206 4
31.92044 27.709133 4
37.406653 -3.6149532 4
34.532848 3.9508626 4
35.688472 2.4749288 4
33.981835 5.8508002 4
35.674309 5.6395877 4
35.175371 6.7412772 4
35.184599 7.8572047 4
35.187205 8.9796666 4
35.187204 10.102158 4
35.187204 11.22462 4
35.187204 12.347053 4
35.187206 13.468531 4
35.18857 14.44208 4
35.187206 15.715509 4
35.187204 16.836931 4
35.187204 17.959393 4
35.187204 19.081855 4
35.187205 20.204316 4
35.187911 21.326577 4
35.175483 22.437842 4
36.136234 23.571761 4
33.832036 23.093662 4
35.687161 26.708451 4
34.526612 25.230017 4
37.406653 32.798966 4
32.884338 3.4545558 4
33.973564 1.972929 4
36.52897 3.0318867 4
36.537833 5.1456399 4
36.160574 6.2526061 4
35.417903 6.7442029 4
35.422945 7.857264 4
35.423496 8.9796979 4
35.423496 10.102158 4
35.423496 11.22462 4
35.423496 12.347088 4
35.423492 13.469805 4
35.39395 14.624515 4
35.423492 15.714202 4
35.423496 16.836931 4
35.423496 17.959393 4
35.423496 19.081855 4
35.423496 20.204321 4
35.42371 21.329002 4
35.41745 22.440606 4
35.730026 23.107231 4
36.455646 23.985689 4
36.515425 26.165128 4
33.973623 27.210823 4
32.759561 25.572092 4
31.958906 1.164968 4
34.948294 -0.98514591 4
35.28483 3.0712492 4
35.973228 4.5163897 4
35.907118 8.1851316 4
36.514804 6.7290763 4
36.513157 7.8529197 4
36.514007 8.9796914 4
36.514008 10.102158 4
36.514008 11.22462 4
36.514008 12.347081 4
36.514008 13.469437 4
36.515507 14.564161 4
36.514008 15.71458 4
36.514008 16.836931 4
36.514008 17.959393 4
36.514008 19.081855 4
36.514007 20.20432 4
36.513188 21.331111 4
36.514189 22.455555 4
35.918285 20.996949 4
35.998779 24.661892 4
35.286148 26.111481 4
34.948294 30.169157 4
31.958859 28.019001 4
32.634005 0.82932027 4
36.119505 1.8365015 4
36.854368 4.8626266 4
35.85573 4.1176895 4
36.761866 5.3020812 4
36.756131 6.7413224 4
36.747497 7.8576616 4
36.750846 8.979696 4
36.750847 10.102158 4
36.750847 11.22462 4
36.750847 12.347083 4
36.750847 13.469564 4
36.748548 14.598367 4
36.750847 15.714449 4
36.750847 16.836931 4
36.750847 17.959393 4
36.750847 19.081855 4
36.750846 20.204317 4
36.747628 21.326348 4
36.755521 22.441815 4
36.772543 23.892029 4
35.875063 25.116718 4
36.856242 24.320619 4
36.119172 27.34788 4
32.634004 28.354694 4
34.16746 1.1164495 4
36.933155 1.2339434 4
37.178479 6.8838678 4
37.199917 3.735172 4
36.915031 5.6266799 4
37.84035 6.7282999 4
37.840845 7.8572369 4
37.840847 8.9796965 4
37.840847 10.102158 4
37.840847 11.22462 4
37.840847 12.347083 4
37.840847 13.46954 4
37.840858 14.589512 4
37.840847 15.714474 4
37.840847 16.836931 4
37.840847 17.959393 4
37.840847 19.081855 4
37.840847 20.204317 4
37.840845 21.326776 4
37.840343 22.455866 4
36.915213 23.570956 4
37.197285 25.446695 4
37.17509 22.300636 4
36.933685 27.950662 4
34.167461 28.067564 4
35.292141 1.1269159 4
35.382281 1.9382328 4
38.123611 2.5607933 4
38.475043 5.0335316 4
38.04745 5.5817236 4
38.07555 6.7354496 4
38.078257 7.8572345 4
38.078262 8.9796964 4
38.078262 10.102158 4
38.078262 11.22462 4
38.078262 12.347083 4
38.078262 13.469545 4
38.078244 14.592433 4
38.078262 15.714468 4
38.078262 16.836931 4
38.078262 17.959393 4
38.078262 19.081855 4
38.078262 20.204317 4
38.078256 21.326779 4
38.075486 22.44855 4
38.046819 23.567719 4
38.479212 24.152605 4
38.120104 26.619289 4
35.382628 27.246442 4
35.292141 28.057097 4
36.374808 0.98970869 4
37.774699 1.7346173 4
37.332565 3.4622484 4
38.24963 4.4515688 4
39.168526 5.6371622 4
39.167626 6.734785 4
39.167627 7.8572338 4
39.167627 8.9796964 4
39.167627 10.102158 4
39.167627 11.22462 4
39.167627 12.347083 4
39.167627 13.469545 4
39.167627 14.591913 4
39.167627 15.714469 4
39.167627 16.836931 4
39.167627 17.959393 4
39.167627 19.081855 4
39.167627 20.204317 4
39.167627 21.32678 4
39.167627 22.449228 4
39.167484 23.57485 4
38.249517 24.730851 4
37.332573 25.721572 4
37.775616 27.450146 4
36.37486 28.193453 4
37.536897 1.1264258 4
37.606784 2.1512339 4
38.481988 3.0512859 4
39.382229 4.6003 4
39.402836 5.6081798 4
39.405492 6.7347712 4
39.405497 7.8572344 4
39.405498 8.9796964 4
39.405498 10.102158 4
39.405498 11.22462 4
39.405498 12.347083 4
39.405498 13.469545 4
39.405498 14.592018 4
39.405498 15.714469 4
39.405498 16.836931 4
39.405498 17.959393 4
39.405498 19.081855 4
39.405498 20.204317 4
39.405497 21.326779 4
39.405492 22.449242 4
39.404558 23.57142 4
39.381657 24.587497 4
38.482093 26.133339 4
37.608122 27.036808 4
37.536897 28.057587 4
38.659389 1.1262949 4
38.659308 2.2450782 4
39.919162 4.2363141 4
40.503772 4.4030036 4
40.494303 5.6132731 4
40.494302 6.7347719 4
40.494302 7.8572343 4
40.494302 8.9796964 4
40.494302 10.102158 4
40.494302 11.22462 4
40.494302 12.347083 4
40.494302 13.469545 4
40.494302 14.592007 4
40.494302 15.714469 4
40.494302 16.836931 4
40.494302 17.959393 4
40.494302 19.081855 4
40.494302 20.204317 4
40.494302 21.326779 4
40.494302 22.449241 4
40.494301 23.571663 4
40.503525 24.778482 4
39.920436 24.946388 4
38.659309 26.938935 4
38.659389 28.057718 4
39.781855 1.1262922 4
39.781865 2.2449579 4
41.278866 2.7463546 4
40.712098 4.499937 4
40.732349 5.6122106 4
40.732358 6.7347723 4
40.732358 7.8572343 4
40.732358 8.9796964 4
40.732358 10.102158 4
40.732358 11.22462 4
40.732358 12.347083 4
40.732358 13.469545 4
40.732358 14.592007 4
40.732358 15.714469 4
40.732358 16.836931 4
40.732358 17.959393 4
40.732358 19.081855 4
40.732358 20.204317 4
40.732358 21.326779 4
40.732358 22.449241 4
40.732352 23.571692 4
40.712972 24.684042 4
41.277458 26.438536 4
39.781865 26.939055 4
39.781855 28.057721 4
40.904317 1.1262921 4
40.904315 2.2451737 4
40.902099 3.3637546 4
41.820704 4.4855065 4
41.820678 5.6122994 4
41.820678 6.7347723 4
41.820678 7.8572343 4
41.820678 8.9796964 4
41.820678 10.102158 4
41.820678 11.22462 4
41.820678 12.347083 4
41.820678 13.469545 4
41.820678 14.592007 4
41.820678 15.714469 4
41.820678 16.836931 4
41.820678 17.959393 4
41.820678 19.081855 4
41.820678 20.204317 4
41.820678 21.326779 4
41.820678 22.449241 4
41.820678 23.571714 4
41.820703 24.698401 4
40.902116 25.820222 4
40.904315 26.938838 4
40.904317 28.057721 4
42.026779 1.1262917 4
42.026776 2.2449381 4
[...]
POINT_DATA 1250
SCALARS m double
LOOKUP_TABLE default
1
1
1
1
1
1
1
1
1
1
1
1
1
1
1
1
1
1
1
1
1
1
1
1
1
1
1
1
1
1
1
1
1
1
1
1
1
1
1
1
1
1
1
1
1
1
1
1
1
1
1
1
1
1
1
1
1
1
1
1
1
1
1
1
1
1
1
1
1
1
1
1
1
1
1
1
1
1
1
1
1
1
1
1
1
1
1
1
1
1
1
1
1
1
1
1
1
1
1
1
1
1
1
1
1
1
1
1
1
1
1
1
1
1
1
1
1
1
1
1
1
1
1
1
1
1
1
1
1
1
1
1
1
1
1
1
1
1
1
1
1
1
1
1
1
1
1
1
1
1
1
1
1
1
1
1
1
1
1
1
1
1
1
1
1
1
1
1
1
1
1
1
1
1
1
1
1
1
1
1
1
1
1
1
1
1
1
1
1
1
1
1
1
1
1
1
1
1
1
1
1
1
1
1
1
1
1
1
1
1
1
1
1
1
1
1
1
1
1
1
1
1
1
1
1
1
1
1
1
1
1
1
1
1
1
1
1
1
1
1
1
1
1
1
1
1
1
1
1
1
1
1
1
1
1
1
1
1
1
1
1
1
1
1
1
1
1
1
1
1
1
1
1
1
1
1
1
1
1
1
1
1
1
1
1
1
1
1
1
1
1
1
1
1
1
1
1
1
1
1
1
1
1
1
1
1
1
1
1
1
1
1
1
1
1
1
1
1
1
1
1
1
1
1
1
1
1
1
1
1
1
1
1
1
1
1
1
1
1
1
1
1
1
1
1
1
1
1
1
1
1
1
1
1
1
1
1
1
1
1
1
1
1
1
1
1
1
1
1
1
1
1
1
1
1
1
1
1
1
1
1
1
1
1
1
1
1
1
1
1
1
1
1
1
1
1
1
1
1
1
1
1
1
1
1
1
1
1
1
1
1
1
1
1
1
1
1
1
1
1
1
1
1
1
1
1
1
1
1
1
1
1
1
1
1
1
1
1
1
1
1
1
1
1
1
1
1
1
1
1
1
1
1
1
1
1
1
1
1
1
1
1
1
1
1
1
1
1
1
1
1
1
1
1
1
1
1
1
1
1
1
1
1
1
1
1
1
1
1
1
1
1
1
1
1
1
1
1
1
1
1
1
1
1
1
1
1
1
1
1
1
1
1
1
1
1
1
1
1
1
1
1
1
1
1
1
1
1
1
1
1
1
1
1
1
1
1
1
1
1
1
1
1
1
1
1
1
1
1
1
1
1
1
1
1
1
1
1
1
1
1
1
1
1
1
1
1
1
1
1
1
1
1
1
1
1
1
1
1
1
1
1
1
1
1
1
1
1
1
1
1
1
1
1
1
1
1
1
1
1
1
1
1
1
1
1
1
1
1
1
1
1
1
1
1
1
1
1
1
1
1
1
1
1
1
1
1
1
1
1
1
1
1
1
1
1
1
1
1
1
1
1
1
1
1
1
1
1
1
1
1
1
1
1
1
1
1
1
1
1
1
1
1
1
1
1
1
1
1
1
1
1
1
1
1
1
1
1
1
1
1
1
1
1
1
1
1
1
1
1
1
1
1
1
1
1
1
1
1
1
1
1
1
1
1
1
1
1
1
1
1
1
1
1
1
1
1
1
1
1
1
1
1
1
1
1
1
1
1
1
1
1
1
1
1
1
1
1
1
1
1
1
1
1
1
1
1
1
1
1
1
1
1
1
1
1
1
1
1
1
1
1
1
1
1
1
1
1
1
1
1
1
1
1
1
1
1
1
1
1
1
1
1
1
1
1
1
1
1
1
1
1
1
1
1
1
1
1
1
1
1
1
1
1
1
1
1
1
1
1
1
1
1
1
1
1
1
1
1
1
1
1
1
1
1
1
1
1
1
1
1
1
1
1
1
1
1
1
1
1
1
1
1
1
1
1
1
1
1
1
1
1
1
1
1
1
1
1
1
1
1
1
1
1
1
1
1
1
1
1
1
1
1
1
1
1
1
1
1
1
1
1
1
1
1
1
1
1
1
1
1
1
1
1
1
1
1
1
1
1
1
1
1
1
1
1
1
1
1
1
1
1
1
1
1
1
1
1
1
1
1
1
1
1
1
1
1
1
1
1
1
1
1
1
1
1
1
1
1
1
1
1
1
1
1
1
1
1
1
1
1
1
1
1
1
1
1
1
1
1
1
1
1
1
1
1
1
1
1
1
1
1
1
1
1
1
1
1
1
1
1
1
1
1
1
1
1
1
1
1
1
1
1
1
1
1
1
1
1
1
1
1
1
1
1
1
1
1
1
1
1
1
1
1
1
1
1
1
1
1
1
1
1
1
1
1
1
1
1
1
1
1
1
1
1
1
1
1
1
1
1
1
1
1
1
1
1
1
1
1
1
1
1
1
1
1
1
1
1
1
1
1
1
1
1
1
1
1
1
1
1
1
1
1
1
1
1
1
1
1
1
1
1
1
1
1
1
1
1
1
1
1
1
1
1
1
1
1
1
1
1
1
1
1
1
1
1
1
1
1
1
1
1
1
1
1
1
1
1
1
1
1
1
1
1
1
1
1
1
1
1
1
1
1
1
1
1
1
1
1
1
1
1
1
1
1
1
1
1
1
1
1
1
1
1
1
1
1
1
1
1
1
1
1
1
1
1
1
1
1
1
1
1
1
1
1
1
1
1
1
1
1
1
1
1
1
1
1
1
1
1
1
1
1
1
1
1
1
1
1
1
1
1
1
1
1
1
1
1
1
1
1
1
1
1
1
1
1
1
1
1
1
1
1
1
1
1
1
1
1
1
1
1
1
1
1
1
1
1
1
1
1
1
1
1
1
1
1
1
1
VECTORS v double
3.5225222 7.5387195 0
-6.3464439 -8.3099759 0
8.2285661 11.555444 0
-7.6536655 -7.0795772 0
-3.3957215 -4.5694378 0
-1.1189386 -3.6264374 0
10.025584 0.012004772 0
6.3276201 0.35914809 0
6.4949551 1.296151e-05 0
6.4958587 -3.1568239e-05 0
6.4792419 0.36755285 0
4.4189006 3.7130359 0
8.9752471 4.3971747 0
4.3219466 -3.7777031 0
6.4958907 0.00047892223 0
6.4958584 -1.2664602e-06 0
6.4949657 -3.6612367e-05 0
6.3406137 0.016867028 0
1.0140886 -13.485375 0
-2.2240278 -9.107659 0
5.9355134 6.2748295 0
-10.163597 0.94667191 0
12.111792 -7.8788405 0
-6.4083506 8.4119862 0
3.5273291 -7.5533657 0
-2.631714 -13.726701 0
6.6492602 1.0718708 0
5.4318677 -9.7861344 0
10.113896 1.3736141 0
12.799044 -3.2642802 0
-0.34424549 -5.8083414 0
-3.5382864 -5.3612379 0
3.1071204 3.4590342 0
-6.4213229 0.033451959 0
-6.501363 5.9263472e-05 0
-6.4946543 -0.24533817 0
-5.281076 -3.0688042 0
-9.3759912 -3.5673266 0
-5.2225268 3.1286167 0
-6.5014207 -0.00039474947 0
-6.5013629 -3.8755454e-05 0
-6.4306009 -0.030715431 0
2.9056529 -3.6298748 0
-9.757871 2.1778511 0
-2.6556286 4.8884951 0
-0.25474372 -1.8191395 0
10.140378 -1.65589 0
5.4453915 9.7820823 0
6.6491564 -1.0719477 0
-2.6317141 13.726701 0
0.26153504 -9.1908382 0
6.7827851 7.9084113 0
-8.7089221 5.9746562 0
2.6416063 0.3160417 0
8.5305836 -5.4606025 0
-1.9423665 14.205087 0
-1.8925739 9.5668178 0
-2.8000979 -5.5721409 0
6.4343414 -0.046842649 0
6.497012 -0.00012974529 0
6.4902025 0.22700536 0
5.2697453 2.8966035 0
9.358873 3.4173333 0
5.2100204 -2.9547461 0
6.4970256 0.00034993286 0
6.4970092 0.00010555017 0
6.4412337 0.0429353 0
-2.6001708 5.7006839 0
-1.3521506 -7.4174949 0
2.8422056 -13.362938 0
10.001146 0.26759966 0
5.7086012 4.1810046 0
0.93754895 -5.9293084 0
7.1686185 -7.5118346 0
0.26691359 9.189376 0
-0.49733367 -3.6830784 0
-6.8977818 -10.619324 0
-4.796027 -5.3780422 0
5.9882571 -1.0627153 0
-11.206731 1.4262997 0
3.1358958 12.062448 0
9.5568918 2.5348852 0
5.6108986 1.0982874 0
8.6584697 18.893521 0
-6.522673 -0.0003946511 0
-6.5215572 -0.096375319 0
-6.2281675 -1.6037564 0
-9.8547485 -1.8135461 0
-6.2117369 1.6399042 0
-6.5225791 -0.0001925116 0
-6.5226939 0.00047352033 0
14.554202 -16.676305 0
5.067672 -1.1036905 0
9.8045396 -2.2930992 0
-9.9230535 5.167852 0
3.1151516 10.129333 0
6.0916705 1.9689064 0
-4.819812 5.3394014 0
-6.89779 10.619322 0
-0.49733235 3.6830799 0
-7.2519346 9.6162507 0
8.2023799 4.3299194 0
-8.758602 -4.9220879 0
9.161908 -5.1109174 0
5.968981 8.9965075 0
-10.050907 -0.099338677 0
-9.9642844 -1.1340904 0
-10.021456 0.011124194 0
-0.8126208 -9.1235822 0
6.5154171 -0.0001534907 0
6.5143291 0.08475533 0
6.2180189 1.4460333 0
-2.9415617 10.125375 0
6.2025575 -1.4840943 0
6.5153648 0.00015466664 0
6.5154506 0.000220306 0
-6.7813907 4.753114 0
-10.01583 -0.0057885765 0
-9.9794424 1.0594836 0
-10.310234 -0.13778068 0
-6.2316935 -7.7826037 0
0.67523236 -11.871326 0
-8.7581007 4.8980352 0
8.1588105 -4.3157856 0
-1.4968165 10.477957 0
-1.1242189 -6.3265903 0
-1.9935141 -10.927191 0
6.4550133 9.1868432 0
-6.9364812 10.740402 0
-9.5684358 -0.47442195 0
-11.72489 8.6154173 0
-2.3411146 3.1124301 0
-6.5545775 -0.040120268 0
-6.5765592 0.00019334663 0
-6.5770393 -1.0553546e-05 0
-6.5770056 -0.021945066 0
-6.5490303 -0.50369658 0
2.7865207 -8.9963247 0
-6.5471743 0.51719185 0
-6.5770585 -6.0440471e-05 0
-6.577039 1.2870835e-05 0
-6.576549 -0.00019265148 0
-6.5551463 0.017514875 0
-2.4021629 -3.0896668 0
-10.882457 -1.3111465 0
4.0746367 -9.2937464 0
-7.6090034 -10.741436 0
6.6475193 -9.0975051 0
-1.992929 10.927358 0
-1.1242252 6.3265936 0
-0.13085546 -4.462294 0
1.4740262 3.5183481 0
-6.4129363 -6.8684463 0
6.5055328 5.7788711 0
-14.645802 2.6205298 0
4.1544576 3.1065304 0
2.1930734 -2.2338423 0
6.5454061 0.032497308 0
6.568766 -0.00014267735 0
6.5693461 2.48202e-06 0
6.5693219 0.018443818 0
6.540166 0.436484 0
-9.4617722 3.4740516 0
6.5385912 -0.44795742 0
6.5693742 4.4928142e-05 0
6.569344 -3.2850274e-06 0
6.5687579 0.00013980436 0
6.5460172 -0.013521627 0
2.2568715 2.2243591 0
-10.132681 0.1072605 0
-11.594491 -7.5172996 0
9.0806769 -2.1145942 0
-6.8598722 6.4060728 0
1.4753674 -3.5386986 0
-0.1278933 4.4800652 0
4.8370531 -9.9977527 0
-5.8631405 -7.3362012 0
1.742982 -3.4206014 0
-3.6078598 4.8110343 0
-3.6383002 -4.5197747 0
-7.9845912 -0.037614777 0
-7.2155796 0.00092304797 0
-6.6711583 -0.0025051158 0
-6.6714458 -1.1167525e-07 0
-6.6714464 3.7235602e-09 0
-6.6714469 -0.0026448551 0
-6.6706027 -0.094332719 0
9.1259487 -3.3349854 0
-6.6703185 0.097046996 0
-6.6714472 -1.0904188e-05 0
-6.6714463 5.0713176e-08 0
-6.6714458 1.4867997e-07 0
-6.6711556 -0.00019424974 0
-6.489978 -0.14463886 0
-7.8974545 -0.40040877 0
10.000974 0.031403953 0
-4.8623001 -6.9192253 0
1.7379402 3.4176423 0
-6.0322012 7.2532416 0
4.8370532 9.9977527 0
-1.286366 -6.5074047 0
-9.8643093 -1.5866286 0
6.2688877 -7.174198 0
8.0549483 4.596804 0
5.2846634 11.652594 0
7.7441506 0.35979185 0
7.1144235 0.043830711 0
6.6653065 0.0016326052 0
6.6654153 -3.3289139e-06 0
6.6654149 9.1637651e-09 0
6.665415 0.0021379965 0
6.6645136 0.078727866 0
-9.6768136 0.86581299 0
6.6642529 -0.080723484 0
6.6654152 8.1356811e-06 0
6.6654149 -2.4514054e-08 0
6.6654153 3.293592e-06 0
6.6653007 0.00053615564 0
6.5425066 0.175343 0
7.6482665 -0.0093996982 0
-8.081067 -5.746169 0
7.4120031 -5.8055484 0
6.1923416 7.2540289 0
-9.863952 1.5851899 0
-4.2180722 3.2286173 0
-0.9691411 9.4259529 0
-3.9332485 -8.2576527 0
2.6815677 -3.3781921 0
-0.25751612 -0.36811836 0
-1.2183794 17.637728 0
-7.6237756 -0.82984467 0
-6.1521476 -0.37821684 0
-6.7926668 -0.00050522164 0
-6.7926561 -3.1706729e-06 0
-6.7926558 -2.4197891e-09 0
-6.7926561 -0.0001303255 0
-6.7926638 -0.0096024761 0
-6.0905832 -2.512496 0
-6.7926265 0.0098879801 0
-6.7926558 -1.4736426e-06 0
-6.7926558 2.4280689e-09 0
-6.7926561 3.2044013e-06 0
-6.7926713 0.00038571719 0
-6.1804804 0.37855529 0
-7.6669518 0.92428784 0
-1.2727271 -17.705222 0
0.12785077 -0.11982249 0
2.6923805 3.3690345 0
-3.9332462 8.257647 0
-0.9740614 -9.4152398 0
-11.499281 -1.0664591 0
-9.9826553 -1.1079931 0
-4.858651 8.6332222 0
-7.3385037 -7.3353134 0
4.5606035 -4.0523202 0
7.728603 0.85260079 0
5.9876069 0.2740663 0
6.789333 0.00020859626 0
6.7894727 3.6578654e-08 0
6.7894733 4.0614447e-09 0
6.7894736 0.00010211782 0
6.789477 0.0077566633 0
6.0720713 2.0606879 0
6.7894465 -0.0079403091 0
6.7894733 1.218693e-06 0
6.7894733 -2.3894573e-09 0
6.7894727 -1.8125158e-08 0
6.7893327 -0.00010609944 0
6.0182533 -0.27575643 0
7.7292591 -0.97208522 0
3.9858278 4.610448 0
-6.7495473 8.5134969 0
-4.8305005 -8.6275484 0
-9.9877113 1.1145989 0
-11.49929 1.0664603 0
-8.546309 -3.6951784 0
6.26795 -4.8268614 0
-0.72546387 15.807334 0
-7.1994587 -7.0899684 0
-10.214729 0.085297236 0
-6.4042776 -0.5538118 0
-6.9130507 0.00015550675 0
-6.913891 4.8553293e-06 0
-6.9139126 2.3034678e-10 0
-6.9139126 -2.1409658e-11 0
-6.9139126 -1.3064781e-07 0
-6.9139142 -0.00040574642 0
-6.9089187 -0.2217082 0
-6.9139109 0.00041924717 0
-6.9139127 -1.5597902e-07 0
-6.9139126 4.7896142e-11 0
-6.9139126 -1.7737903e-10 0
-6.9138907 -4.4274386e-06 0
-6.9130243 -0.00016341014 0
-6.3904479 0.56608985 0
-10.214943 0.053190335 0
-7.2179342 7.0869532 0
-0.71852623 -15.786688 0
6.2718042 4.850863 0
-8.5462175 3.6952934 0
-9.9974321 0.016534286 0
-8.9637729 -3.434596 0
3.6339471 1.4162932 0
4.0639464 5.5688915 0
-9.9884511 -0.55821514 0
6.3337547 0.42145454 0
6.9126988 -0.00015863972 0
6.9136946 -5.9978719e-06 0
6.9137222 -1.0290246e-10 0
6.9137222 4.9505962e-11 0
6.9137221 1.351979e-07 0
6.9137233 0.00031985264 0
6.9085982 0.17807069 0
6.9137209 -0.0003257008 0
6.9137222 8.7666239e-08 0
6.9137222 -5.7755197e-11 0
6.9137222 6.8783614e-11 0
6.9136941 5.713224e-06 0
6.9126697 0.00016245537 0
6.3203398 -0.43111429 0
-10.001479 -0.067192473 0
4.1035015 -5.5417199 0
3.5760863 -1.5221221 0
-8.9597711 3.4426016 0
-9.9974296 -0.016545384 0
-11.483501 -4.9531927 0
-1.3854244 -6.886969 0
-10.011243 0.49754087 0
-10.043334 -0.30065078 0
-6.3353285 2.1709802 0
-7.0046542 0.0010595596 0
-7.0054759 -4.9111012e-05 0
-7.0055238 9.2574808e-10 0
-7.0055238 2.4424861e-12 0
-7.0055238 -7.8083083e-14 0
-7.0055238 -3.0308508e-09 0
-7.0055238 9.0296102e-08 0
-7.0055172 -0.0080846186 0
-7.0055237 1.065097e-07 0
-7.0055238 -5.5373012e-08 0
-7.0055238 2.0889466e-13 0
-7.0055238 -3.8752548e-12 0
-7.0055238 -1.066646e-09 0
-7.0054753 5.1200645e-05 0
-7.0046311 -0.0010994983 0
-6.8404399 0.26585815 0
-10.04529 0.2817129 0
-10.020555 -0.51804443 0
-1.3761456 6.8978637 0
-11.481039 4.9215985 0
-10.002263 0.015678669 0
-8.9216168 -3.732419 0
-9.8152096 -2.1489155 0
-9.8245556 1.9961066 0
6.3135827 -1.7344826 0
7.0067473 -0.00083193232 0
7.0076348 3.7694195e-05 0
7.0076882 2.48444e-11 0
7.0076882 3.4580446e-12 0
7.0076882 -2.3828097e-13 0
7.0076882 2.8199004e-09 0
7.0076882 3.5570533e-08 0
7.0076815 0.0063347439 0
7.0076882 2.2898373e-08 0
7.0076882 3.6578046e-09 0
7.0076882 5.1157483e-13 0
7.0076882 -2.4984395e-12 0
7.0076882 6.5977768e-11 0
7.007634 -3.9462101e-05 0
7.0067252 0.00083646863 0
6.8315786 -0.20448082 0
-9.8358147 -1.9277458 0
-9.8145119 2.1530783 0
-8.8813886 3.8330294 0
-10.002269 -0.015710795 0
-10.000168 0.0084061375 0
-10.005053 0.0043879858 0
-6.3929725 8.6144674 0
0.6111522 -5.4827875 0
-7.0398424 0.082184975 0
-7.0414932 -3.5418724e-05 0
-7.0415163 8.1476005e-08 0
-7.0415163 2.0491801e-11 0
-7.0415163 1.9574138e-14 0
-7.0415163 -2.5310496e-13 0
-7.0415163 -1.2672345e-12 0
-7.0415163 4.9795758e-09 0
-7.0415163 -2.4852941e-08 0
-7.0415163 5.7079234e-09 0
-7.0415163 -2.6977807e-13 0
-7.0415163 5.0077382e-13 0
-7.0415163 -1.5060249e-14 0
-7.0415163 -2.6868447e-11 0
-7.0415163 -2.8749475e-08 0
-7.0414926 3.4705162e-05 0
-7.0405206 -0.0026036811 0
0.15468462 5.4877338 0
-6.379675 -8.627503 0
-10.004909 -0.0043325234 0
-10.000169 -0.0084065936 0
-10.000004 0.0082758306 0
-9.9997514 5.8296971e-05 0
6.2692665 -6.6894547 0
-0.82915651 3.8336016 0
7.0432631 -0.063850653 0
7.0449888 2.7295534e-05 0
7.0450137 -4.7418183e-08 0
7.0450137 -4.031669e-12 0
7.0450137 3.9922829e-15 0
7.0450137 -5.0275066e-14 0
7.0450137 -1.0162007e-13 0
7.0450137 -3.2525463e-09 0
7.0450137 1.7216779e-08 0
7.0450137 -3.8234115e-09 0
7.0450137 6.3689415e-14 0
7.0450137 9.5307498e-14 0
7.0450137 -4.9207624e-15 0
7.0450137 8.1402723e-12 0
7.0450137 2.1095224e-09 0
7.0449886 -2.7772926e-05 0
7.0439623 0.0014427125 0
-0.36071233 -3.8927044 0
6.2545865 6.7001671 0
-9.9997501 -5.9755172e-05 0
-10.000004 -0.0082758437 0
-10 0.0082841159 0
-9.9970565 0.014170906 0
-10.04881 -0.11639159 0
-6.7720601 -0.37169906 0
-6.7896165 -0.00092972059 0
-6.789672 -3.5081352e-07 0
-6.789672 -2.6454488e-10 0
-6.789672 -9.3349829e-14 0
-6.789672 5.7863817e-15 0
-6.789672 -5.2108005e-14 0
-6.789672 -9.4750739e-14 0
-6.789672 -1.3238115e-13 0
-6.789672 -4.8530152e-15 0
-6.789672 1.4594354e-13 0
-6.789672 9.3931504e-14 0
-6.789672 9.9437813e-14 0
-6.789672 -5.1071238e-15 0
-6.789672 1.3966031e-15 0
-6.789672 2.0015702e-10 0
-6.789672 2.730576e-07 0
-6.7896165 0.00096694736 0
-6.7727537 0.36262116 0
-10.048479 0.1152976 0
-9.9970271 -0.014318979 0
-10 -0.0082841609 0
-10.000003 0.0082712062 0
-10.000267 0.00016600427 0
-10.000328 -1.5671667e-05 0
6.7727541 0.29049446 0
6.7909418 0.00073394335 0
6.7909992 2.9750217e-07 0
6.7909992 2.7149221e-10 0
6.7909992 -7.3776351e-14 0
6.7909992 5.6022743e-15 0
6.7909992 -4.70822e-14 0
6.7909992 -8.469125e-14 0
6.7909992 -1.2152217e-13 0
6.7909992 -1.7514458e-13 0
6.7909992 1.2723631e-13 0
6.7909992 8.4521097e-14 0
6.7909992 8.9510911e-14 0
6.7909992 -4.9905069e-15 0
6.7909992 -9.9881332e-15 0
6.7909992 -2.1531219e-10 0
6.7909992 -2.4308826e-07 0
6.7909418 -0.00076286191 0
6.773467 -0.28340865 0
-10.000326 1.4237034e-05 0
-10.000266 -0.00016492182 0
-10.000003 -0.0082712052 0
-10 0.0082663649 0
-10.000002 -3.2191907e-06 0
-10.000008 2.5819068e-06 0
-10.000035 3.6940163e-06 0
-10.00004 3.0240914e-08 0
-10.00004 3.0028149e-11 0
-10.00004 -2.6311735e-14 0
-10.00004 -2.3755981e-15 0
-10.00004 5.5164276e-15 0
-10.00004 -4.7490362e-15 0
-10.00004 -8.0844284e-17 0
-10.00004 4.5982851e-15 0
-10.00004 -4.7233667e-15 0
-10.00004 -1.9719401e-16 0
-10.00004 9.5897458e-17 0
-10.00004 4.910564e-15 0
-10.00004 -4.9165435e-15 0
-10.00004 1.1804577e-17 0
-10.00004 3.1544331e-14 0
-10.00004 -3.2078027e-11 0
-10.00004 -2.9811575e-08 0
-10.000035 -3.6953181e-06 0
-10.000008 -2.584111e-06 0
-10.000002 3.2225807e-06 0
-10 -0.0082663648 0
-10 0.0082663357 0
-10 -3.9047808e-06 0
-10 -4.9331958e-07 0
-10 1.9907763e-08 0
-10 2.9822207e-12 0
-10 -4.5714193e-15 0
-10 -5.7645e-17 0
-10 -2.3478174e-15 0
-10 5.5162775e-15 0
-10 -4.748369e-15 0
-10 -8.0288798e-17 0
-10 4.5985817e-15 0
-10 -4.7226561e-15 0
-10 -1.9693455e-16 0
-10 9.5631155e-17 0
-10 4.9097124e-15 0
-10 -4.916227e-15 0
-10 -1.6950776e-17 0
-10 2.3510281e-16 0
-10 7.1467852e-15 0
-10 -2.9468989e-12 0
-10 -1.9911601e-08 0
-10 4.9331938e-07 0
-10 3.9047808e-06 0
-10 -0.0082663357 0
-10 0.0082663356 0
-10 -3.9047803e-06 0
-10 -5.1315129e-07 0
-10 2.251298e-10 0
-10 6.2851452e-12 0
-10 -1.4791305e-15 0
-10 -3.3154162e-17 0
-10 -2.3471987e-15 0
-10 5.5157833e-15 0
-10 -4.7481461e-15 0
-10 -8.0409416e-17 0
-10 4.5983114e-15 0
-10 -4.7224585e-15 0
-10 -1.9767043e-16 0
-10 9.5729583e-17 0
-10 4.9099026e-15 0
-10 -4.9166575e-15 0
-10 -1.6978451e-17 0
-10 2.0928379e-16 0
-10 3.9086332e-15 0
-10 -6.2845735e-12 0
-10 -2.2513211e-10 0
-10 5.1315129e-07 0
-10 3.9047803e-06 0
-10 -0.0082663356 0
-9.9999995 0.0082663441 0
-9.9999995 -3.9052602e-06 0
-9.9999995 -5.1317656e-07 0
-9.9999995 2.2518469e-10 0
-9.9999995 6.2853346e-12 0
-9.9999995 -1.4805127e-15 0
-9.9999995 -3.2951958e-17 0
-9.9999995 -2.345959e-15 0
-9.9999995 5.5158693e-15 0
-9.9999995 -4.7477138e-15 0
-9.9999995 -7.9428625e-17 0
-9.9999995 4.5996872e-15 0
-9.9999995 -4.7199307e-15 0
-9.9999995 -1.9941842e-16 0
-9.9999995 9.4682089e-17 0
-9.9999995 4.9088177e-15 0
-9.9999995 -4.9165527e-15 0
-9.9999995 -1.6978301e-17 0
-9.9999995 2.0915741e-16 0
-9.9999995 3.910767e-15 0
-9.9999995 -6.2847801e-12 0
-9.9999995 -2.251876e-10 0
-9.9999995 5.1317656e-07 0
-9.9999995 3.9052602e-06 0
-9.9999995 -0.0082663441 0
-10.000001 0.0082679597 0
-9.9999963 -3.721104e-06 0
-9.9999961 -5.1402764e-07 0
-9.9999961 2.2308279e-10 0
-9.9999961 6.2964274e-12 0
-9.9999961 -1.4749378e-15 0
-9.9999961 -3.3239236e-17 0
-9.9999961 -2.3479392e-15 0
-9.9999961 5.5168348e-15 0
-9.9999961 -4.7489897e-15 0
-9.9999961 -8.0601254e-17 0
-9.9999961 4.5986876e-15 0
-9.9999961 -4.7238921e-15 0
-9.9999961 -1.9702597e-16 0
-9.9999961 9.593618e-17 0
-9.9999961 4.9109194e-15 0
-9.9999961 -4.9175923e-15 0
-9.9999961 -1.6978924e-17 0
-9.9999961 2.0950933e-16 0
-9.9999961 3.894604e-15 0
-9.9999961 -6.295836e-12 0
-9.9999961 -2.2308533e-10 0
-9.9999961 5.1402763e-07 0
-9.9999963 3.721104e-06 0
-10.000001 -0.0082679597 0
-10.007811 0.0078109214 0
-10.008268 8.5577923e-07 0
-10.008266 -5.0324088e-07 0
-10.008266 1.1868086e-10 0
-10.008266 6.222132e-12 0
-10.008266 -7.0872462e-16 0
-10.008266 -3.3298321e-17 0
-10.008266 -2.2923197e-15 0
-10.008266 5.3764899e-15 0
-10.008266 -4.6297303e-15 0
-10.008266 -8.2095074e-17 0
-10.008266 4.4772584e-15 0
-10.008266 -4.6119912e-15 0
-10.008266 -1.8732617e-16 0
-10.008266 9.7955372e-17 0
-10.008266 4.7896816e-15 0
-10.008266 -4.7936512e-15 0
-10.008266 -1.6978939e-17 0
-10.008266 2.0552127e-16 0
-10.008266 3.0984801e-15 0
-10.008266 -6.2206509e-12 0
-10.008266 -1.1868622e-10 0
-10.008266 5.0324088e-07 0
-10.008268 -8.5577922e-07 0
-10.007811 -0.0078109214 0
-3.5199948 7.5427304 0
6.4932123 -7.9016955 0
-7.3627937 -1.8117624 0
9.9216655 2.152854 0
-6.1175926 -11.067308 0
8.2901069 -3.8570423 0
-10.007043 -0.10195223 0
-6.3280414 -0.39185023 0
-6.4949539 9.7029514e-05 0
-6.4958589 3.2551355e-05 0
-6.4792874 -0.37631299 0
-4.4195623 -3.7300635 0
-8.9746918 -4.4067658 0
-4.3232001 3.7949259 0
-6.4958933 -0.0004966677 0
-6.4958584 1.7663635e-06 0
-6.4949656 -3.6872592e-05 0
-6.3405855 0.016783179 0
-1.0789469 -13.501618 0
2.2300833 -9.1051626 0
-5.9326238 6.2808115 0
10.085571 1.674781 0
-10.951121 -9.3540327 0
6.3823083 8.5557214 0
-3.5254814 -7.5534133 0
2.631714 -13.726701 0
-6.6492606 1.0718749 0
-5.4324619 -9.796567 0
-10.130522 1.6893519 0
-5.275671 -6.4899454 0
-0.32784277 3.0953331 0
-7.6206333 3.1559324 0
-2.3401895 3.8849565 0
6.4394425 0.028046056 0
6.5013616 8.4913752e-06 0
6.4858581 0.36543622 0
5.0448745 3.299439 0
9.3390351 3.6609617 0
4.9832331 -3.3577172 0
6.5014056 0.00039999862 0
6.5013629 -4.1229594e-05 0
6.4306782 -0.030693074 0
-2.8987127 -3.6323489 0
9.7600474 2.1776489 0
2.6309102 4.8908096 0
4.0420965 -1.2669392 0
-10.137167 -1.4126394 0
-5.4452808 9.7796869 0
-6.6491354 -1.0719755 0
2.6317141 13.726701 0
-0.26135132 -9.1908629 0
-3.7117763 9.7100996 0
0.21372104 5.3796221 0
9.3636643 8.5105775 0
-8.5225498 4.9675613 0
6.3030442 2.2564387 0
0.36570859 5.4283723 0
2.0329372 -5.8323982 0
-6.4478163 -0.039080568 0
-6.4970067 -7.1963983e-05 0
-6.4814197 -0.35426986 0
-5.0325372 -3.140039 0
-9.3503875 -3.4164629 0
-4.9716762 3.1972074 0
-6.4970146 -0.00037856497 0
-6.4970092 0.00010790145 0
-6.441291 0.042902786 0
2.5933069 5.7027224 0
1.3454554 -7.399516 0
-4.6366649 -11.454772 0
-10.001101 0.2658304 0
-5.5410529 4.4010912 0
-0.97877356 -5.8105088 0
-8.1025896 -6.3468258 0
-0.26699084 9.1893802 0
0.49733368 -3.6830784 0
6.8977819 -10.619325 0
4.7617458 -5.4791004 0
-6.2157765 -1.7456476 0
3.8543128 5.675387 0
0.15028409 9.2717479 0
-5.7961314 13.758885 0