# vtk DataFile Version 4.0
hesp visualization file
ASCII
DATASET UNSTRUCTURED_GRID
POINTS 1250 double
30.140529 1.1226802 4
30.140526 2.2449264 4
30.140526 3.3673861 4
30.140526 4.4898482 4
30.140526 5.6123102 4
30.140526 6.7347723 4
30.140526 7.8572343 4
30.140526 8.9796964 4
30.140526 10.102158 4
30.140526 11.22462 4
30.140526 12.347083 4
30.140526 13.469545 4
30.140526 14.592007 4
30.140526 15.714469 4
30.140526 16.836931 4
30.140526 17.959393 4
30.140526 19.081855 4
30.140526 20.204317 4
30.140526 21.326779 4
30.140526 22.449241 4
30.140526 23.571703 4
30.140526 24.694165 4
30.140526 25.816627 4
30.140526 26.939087 4
30.140529 28.061333 4
31.185916 1.1226022 4
31.185915 2.2449247 4
31.185915 3.3673861 4
31.185915 4.4898482 4
31.185915 5.6123102 4
31.185915 6.7347723 4
31.185915 7.8572343 4
31.185915 8.9796964 4
31.185915 10.102158 4
31.185915 11.22462 4
31.185915 12.347083 4
31.185915 13.469545 4
31.185915 14.592007 4
31.185915 15.714469 4
31.185915 16.836931 4
31.185915 17.959393 4
31.185915 19.081855 4
31.185915 20.204317 4
31.185915 21.326779 4
31.185915 22.449241 4
31.185915 23.571703 4
31.185915 24.694165 4
31.185915 25.816627 4
31.185915 26.939089 4
31.185916 28.061411 4
31.467102 1.1226227 4
31.467101 2.2449252 4
31.467101 3.3673861 4
31.467101 4.4898482 4
31.467101 5.6123102 4
31.467101 6.7347723 4
31.467101 7.8572343 4
31.467101 8.9796964 4
31.467101 10.102158 4
31.467101 11.22462 4
31.467101 12.347083 4
31.467101 13.469545 4
31.467101 14.592007 4
31.467101 15.714469 4
31.467101 16.836931 4
31.467101 17.959393 4
31.467101 19.081855 4
31.467101 20.204317 4
31.467101 21.326779 4
31.467101 22.449241 4
31.467101 23.571703 4
31.467101 24.694165 4
31.467101 25.816627 4
31.467101 26.939088 4
31.467102 28.061391 4
32.589848 1.1226214 4
32.589848 2.2449252 4
32.589848 3.3673861 4
32.589848 4.4898482 4
32.589848 5.6123102 4
32.589848 6.7347723 4
32.589848 7.8572343 4
32.589848 8.9796964 4
32.589848 10.102158 4
32.589848 11.22462 4
32.589848 12.347083 4
32.589848 13.469545 4
32.589848 14.592007 4
32.589848 15.714469 4
32.589848 16.836931 4
32.589848 17.959393 4
32.589848 19.081855 4
32.589848 20.204317 4
32.589848 21.326779 4
32.589848 22.449241 4
32.589848 23.571703 4
32.589848 24.694165 4
32.589848 25.816627 4
32.589848 26.939088 4
32.589848 28.061392 4
33.71231 1.1226213 4
33.71231 2.2449252 4
33.71231 3.3673861 4
33.71231 4.4898482 4
33.71231 5.6123102 4
33.71231 6.7347723 4
33.71231 7.8572343 4
33.71231 8.9796964 4
33.71231 10.102158 4
33.71231 11.22462 4
33.71231 12.347083 4
33.71231 13.469545 4
33.71231 14.592007 4
33.71231 15.714469 4
33.71231 16.836931 4
33.71231 17.959393 4
33.71231 19.081855 4
33.71231 20.204317 4
33.71231 21.326779 4
33.71231 22.449241 4
33.71231 23.571703 4
33.71231 24.694165 4
33.71231 25.816627 4
33.71231 26.939088 4
33.71231 28.061392 4
34.834772 1.1226213 4
34.834772 2.2449252 4
34.834772 3.3673861 4
34.834772 4.4898482 4
34.834772 5.6123102 4
34.834772 6.7347723 4
34.834772 7.8572343 4
34.834772 8.9796964 4
34.834772 10.102158 4
34.834772 11.22462 4
34.834772 12.347083 4
34.834772 13.469545 4
34.834772 14.592007 4
34.834772 15.714469 4
34.834772 16.836931 4
34.834772 17.959393 4
34.834772 19.081855 4
34.834772 20.204317 4
34.834772 21.326779 4
34.834772 22.449241 4
34.834772 23.571703 4
34.834772 24.694165 4
34.834772 25.816627 4
34.834772 26.939088 4
34.834772 28.061392 4
35.957234 1.1226213 4
35.957234 2.2449252 4
35.957234 3.3673861 4
35.957234 4.4898482 4
35.957234 5.6123102 4
35.957234 6.7347723 4
35.957234 7.8572343 4
35.957234 8.9796964 4
35.957234 10.102158 4
35.957234 11.22462 4
35.957234 12.347083 4
35.957234 13.469545 4
35.957234 14.592007 4
35.957234 15.714469 4
35.957234 16.836931 4
35.957234 17.959393 4
35.957234 19.081855 4
35.957234 20.204317 4
35.957234 21.326779 4
35.957234 22.449241 4
35.957234 23.571703 4
35.957234 24.694165 4
35.957234 25.816627 4
35.957234 26.939088 4
35.957234 28.061392 4
37.079696 1.1226213 4
37.079696 2.2449252 4
37.079696 3.3673861 4
37.079696 4.4898482 4
37.079696 5.6123102 4
37.079696 6.7347723 4
37.079696 7.8572343 4
37.079696 8.9796964 4
37.079696 10.102158 4
37.079696 11.22462 4
37.079696 12.347083 4
37.079696 13.469545 4
37.079696 14.592007 4
37.079696 15.714469 4
37.079696 16.836931 4
37.079696 17.959393 4
37.079696 19.081855 4
37.079696 20.204317 4
37.079696 21.326779 4
37.079696 22.449241 4
37.079696 23.571703 4
37.079696 24.694165 4
37.079696 25.816627 4
37.079696 26.939088 4
37.079696 28.061392 4
38.202158 1.1226213 4
38.202158 2.2449252 4
38.202158 3.3673861 4
38.202158 4.4898482 4
38.202158 5.6123102 4
38.202158 6.7347723 4
38.202158 7.8572343 4
38.202158 8.9796964 4
38.202158 10.102158 4
38.202158 11.22462 4
38.202158 12.347083 4
38.202158 13.469545 4
38.202158 14.592007 4
38.202158 15.714469 4
38.202158 16.836931 4
38.202158 17.959393 4
38.202158 19.081855 4
38.202158 20.204317 4
38.202158 21.326779 4
38.202158 22.449241 4
38.202158 23.571703 4
38.202158 24.694165 4
38.202158 25.816627 4
38.202158 26.939088 4
38.202158 28.061392 4
39.32462 1.1226213 4
39.32462 2.2449252 4
39.32462 3.3673861 4
39.32462 4.4898482 4
39.32462 5.6123102 4
39.32462 6.7347723 4
39.32462 7.8572343 4
39.32462 8.9796964 4
39.32462 10.102158 4
39.32462 11.22462 4
39.32462 12.347083 4
39.32462 13.469545 4
39.32462 14.592007 4
39.32462 15.714469 4
39.32462 16.836931 4
39.32462 17.959393 4
39.32462 19.081855 4
39.32462 20.204317 4
39.32462 21.326779 4
39.32462 22.449241 4
39.32462 23.571703 4
39.32462 24.694165 4
39.32462 25.816627 4
39.32462 26.939088 4
39.32462 28.061392 4
40.447083 1.1226213 4
40.447083 2.2449252 4
40.447083 3.3673861 4
40.447083 4.4898482 4
40.447083 5.6123102 4
40.447083 6.7347723 4
40.447083 7.8572343 4
40.447083 8.9796964 4
40.447083 10.102158 4
40.447083 11.22462 4
40.447083 12.347083 4
40.447083 13.469545 4
40.447083 14.592007 4
40.447083 15.714469 4
40.447083 16.836931 4
40.447083 17.959393 4
40.447083 19.081855 4
40.447083 20.204317 4
40.447083 21.326779 4
40.447083 22.449241 4
40.447083 23.571703 4
40.447083 24.694165 4
40.447083 25.816627 4
40.447083 26.939088 4
40.447083 28.061392 4
41.569545 1.1226213 4
41.569545 2.2449252 4
41.569545 3.3673861 4
41.569545 4.4898482 4
41.569545 5.6123102 4
41.569545 6.7347723 4
41.569545 7.8572343 4
41.569545 8.9796964 4
41.569545 10.102158 4
41.569545 11.22462 4
41.569545 12.347083 4
41.569545 13.469545 4
41.569545 14.592007 4
41.569545 15.714469 4
41.569545 16.836931 4
41.569545 17.959393 4
41.569545 19.081855 4
41.569545 20.204317 4
41.569545 21.326779 4
41.569545 22.449241 4
41.569545 23.571703 4
41.569545 24.694165 4
41.569545 25.816627 4
41.569545 26.939088 4
41.569545 28.061392 4
42.692007 1.1226213 4
42.692007 2.2449252 4
42.692007 3.3673861 4
42.692007 4.4898482 4
42.692007 5.6123102 4
42.692007 6.7347723 4
42.692007 7.8572343 4
42.692007 8.9796964 4
42.692007 10.102158 4
42.692007 11.22462 4
42.692007 12.347083 4
42.692007 13.469545 4
42.692007 14.592007 4
42.692007 15.714469 4
42.692007 16.836931 4
42.692007 17.959393 4
42.692007 19.081855 4
42.692007 20.204317 4
42.692007 21.326779 4
42.692007 22.449241 4
42.692007 23.571703 4
42.692007 24.694165 4
42.692007 25.816627 4
42.692007 26.939088 4
42.692007 28.061392 4
43.814469 1.1226213 4
43.814469 2.2449252 4
43.814469 3.3673861 4
43.814469 4.4898482 4
43.814469 5.6123102 4
43.814469 6.7347723 4
43.814469 7.8572343 4
43.814469 8.9796964 4
43.814469 10.102158 4
43.814469 11.22462 4
43.814469 12.347083 4
43.814469 13.469545 4
43.814469 14.592007 4
43.814469 15.714469 4
43.814469 16.836931 4
43.814469 17.959393 4
43.814469 19.081855 4
43.814469 20.204317 4
43.814469 21.326779 4
43.814469 22.449241 4
43.814469 23.571703 4
43.814469 24.694165 4
43.814469 25.816627 4
43.814469 26.939088 4
43.814469 28.061392 4
44.936931 1.1226213 4
44.936931 2.2449252 4
44.936931 3.3673861 4
44.936931 4.4898482 4
44.936931 5.6123102 4
44.936931 6.7347723 4
44.936931 7.8572343 4
44.936931 8.9796964 4
44.936931 10.102158 4
44.936931 11.22462 4
44.936931 12.347083 4
44.936931 13.469545 4
44.936931 14.592007 4
44.936931 15.714469 4
44.936931 16.836931 4
44.936931 17.959393 4
44.936931 19.081855 4
44.936931 20.204317 4
44.936931 21.326779 4
44.936931 22.449241 4
44.936931 23.571703 4
44.936931 24.694165 4
44.936931 25.816627 4
44.936931 26.939088 4
44.936931 28.061392 4
46.059393 1.1226213 4
46.059393 2.2449252 4
46.059393 3.3673861 4
46.059393 4.4898482 4
46.059393 5.6123102 4
46.059393 6.7347723 4
46.059393 7.8572343 4
46.059393 8.9796964 4
46.059393 10.102158 4
46.059393 11.22462 4
46.059393 12.347083 4
46.059393 13.469545 4
46.059393 14.592007 4
46.059393 15.714469 4
46.059393 16.836931 4
46.059393 17.959393 4
46.059393 19.081855 4
46.059393 20.204317 4
46.059393 21.326779 4
46.059393 22.449241 4
46.059393 23.571703 4
46.059393 24.694165 4
46.059393 25.816627 4
46.059393 26.939088 4
46.059393 28.061392 4
47.181855 1.1226213 4
47.181855 2.2449252 4
47.181855 3.3673861 4
47.181855 4.4898482 4
47.181855 5.6123102 4
47.181855 6.7347723 4
47.181855 7.8572343 4
47.181855 8.9796964 4
47.181855 10.102158 4
47.181855 11.22462 4
47.181855 12.347083 4
47.181855 13.469545 4
47.181855 14.592007 4
47.181855 15.714469 4
47.181855 16.836931 4
47.181855 17.959393 4
47.181855 19.081855 4
47.181855 20.204317 4
47.181855 21.326779 4
47.181855 22.449241 4
47.181855 23.571703 4
47.181855 24.694165 4
47.181855 25.816627 4
47.181855 26.939088 4
47.181855 28.061392 4
48.304317 1.1226213 4
48.304317 2.2449252 4
48.304317 3.3673861 4
48.304317 4.4898482 4
48.304317 5.6123102 4
48.304317 6.7347723 4
48.304317 7.8572343 4
48.304317 8.9796964 4
48.304317 10.102158 4
48.304317 11.22462 4
48.304317 12.347083 4
48.304317 13.469545 4
48.304317 14.592007 4
48.304317 15.714469 4
48.304317 16.836931 4
48.304317 17.959393 4
48.304317 19.081855 4
48.304317 20.204317 4
48.304317 21.326779 4
48.304317 22.449241 4
48.304317 23.571703 4
48.304317 24.694165 4
48.304317 25.816627 4
48.304317 26.939088 4
48.304317 28.061392 4
49.426779 1.1226213 4
49.426779 2.2449252 4
49.426779 3.3673861 4
[...]
POINT_DATA 1250
SCALARS m double
LOOKUP_TABLE default
1
1
1
1
1
1
1
1
1
1
1
1
1
1
1
1
1
1
1
1
1
1
1
1
1
1
1
1
1
1
1
1
1
1
1
1
1
1
1
1
1
1
1
1
1
1
1
1
1
1
1
1
1
1
1
1
1
1
1
1
1
1
1
1
1
1
1
1
1
1
1
1
1
1
1
1
1
1
1
1
1
1
1
1
1
1
1
1
1
1
1
1
1
1
1
1
1
1
1
1
1
1
1
1
1
1
1
1
1
1
1
1
1
1
1
1
1
1
1
1
1
1
1
1
1
1
1
1
1
1
1
1
1
1
1
1
1
1
1
1
1
1
1
1
1
1
1
1
1
1
1
1
1
1
1
1
1
1
1
1
1
1
1
1
1
1
1
1
1
1
1
1
1
1
1
1
1
1
1
1
1
1
1
1
1
1
1
1
1
1
1
1
1
1
1
1
1
1
1
1
1
1
1
1
1
1
1
1
1
1
1
1
1
1
1
1
1
1
1
1
1
1
1
1
1
1
1
1
1
1
1
1
1
1
1
1
1
1
1
1
1
1
1
1
1
1
1
1
1
1
1
1
1
1
1
1
1
1
1
1
1
1
1
1
1
1
1
1
1
1
1
1
1
1
1
1
1
1
1
1
1
1
1
1
1
1
1
1
1
1
1
1
1
1
1
1
1
1
1
1
1
1
1
1
1
1
1
1
1
1
1
1
1
1
1
1
1
1
1
1
1
1
1
1
1
1
1
1
1
1
1
1
1
1
1
1
1
1
1
1
1
1
1
1
1
1
1
1
1
1
1
1
1
1
1
1
1
1
1
1
1
1
1
1
1
1
1
1
1
1
1
1
1
1
1
1
1
1
1
1
1
1
1
1
1
1
1
1
1
1
1
1
1
1
1
1
1
1
1
1
1
1
1
1
1
1
1
1
1
1
1
1
1
1
1
1
1
1
1
1
1
1
1
1
1
1
1
1
1
1
1
1
1
1
1
1
1
1
1
1
1
1
1
1
1
1
1
1
1
1
1
1
1
1
1
1
1
1
1
1
1
1
1
1
1
1
1
1
1
1
1
1
1
1
1
1
1
1
1
1
1
1
1
1
1
1
1
1
1
1
1
1
1
1
1
1
1
1
1
1
1
1
1
1
1
1
1
1
1
1
1
1
1
1
1
1
1
1
1
1
1
1
1
1
1
1
1
1
1
1
1
1
1
1
1
1
1
1
1
1
1
1
1
1
1
1
1
1
1
1
1
1
1
1
1
1
1
1
1
1
1
1
1
1
1
1
1
1
1
1
1
1
1
1
1
1
1
1
1
1
1
1
1
1
1
1
1
1
1
1
1
1
1
1
1
1
1
1
1
1
1
1
1
1
1
1
1
1
1
1
1
1
1
1
1
1
1
1
1
1
1
1
1
1
1
1
1
1
1
1
1
1
1
1
1
1
1
1
1
1
1
1
1
1
1
1
1
1
1
1
1
1
1
1
1
1
1
1
1
1
1
1
1
1
1
1
1
1
1
1
1
1
1
1
1
1
1
1
1
1
1
1
1
1
1
1
1
1
1
1
1
1
1
1
1
1
1
1
1
1
1
1
1
1
1
1
1
1
1
1
1
1
1
1
1
1
1
1
1
1
1
1
1
1
1
1
1
1
1
1
1
1
1
1
1
1
1
1
1
1
1
1
1
1
1
1
1
1
1
1
1
1
1
1
1
1
1
1
1
1
1
1
1
1
1
1
1
1
1
1
1
1
1
1
1
1
1
1
1
1
1
1
1
1
1
1
1
1
1
1
1
1
1
1
1
1
1
1
1
1
1
1
1
1
1
1
1
1
1
1
1
1
1
1
1
1
1
1
1
1
1
1
1
1
1
1
1
1
1
1
1
1
1
1
1
1
1
1
1
1
1
1
1
1
1
1
1
1
1
1
1
1
1
1
1
1
1
1
1
1
1
1
1
1
1
1
1
1
1
1
1
1
1
1
1
1
1
1
1
1
1
1
1
1
1
1
1
1
1
1
1
1
1
1
1
1
1
1
1
1
1
1
1
1
1
1
1
1
1
1
1
1
1
1
1
1
1
1
1
1
1
1
1
1
1
1
1
1
1
1
1
1
1
1
1
1
1
1
1
1
1
1
1
1
1
1
1
1
1
1
1
1
1
1
1
1
1
1
1
1
1
1
1
1
1
1
1
1
1
1
1
1
1
1
1
1
1
1
1
1
1
1
1
1
1
1
1
1
1
1
1
1
1
1
1
1
1
1
1
1
1
1
1
1
1
1
1
1
1
1
1
1
1
1
1
1
1
1
1
1
1
1
1
1
1
1
1
1
1
1
1
1
1
1
1
1
1
1
1
1
1
1
1
1
1
1
1
1
1
1
1
1
1
1
1
1
1
1
1
1
1
1
1
1
1
1
1
1
1
1
1
1
1
1
1
1
1
1
1
1
1
1
1
1
1
1
1
1
1
1
1
1
1
1
1
1
1
1
1
1
1
1
1
1
1
1
1
1
1
1
1
1
1
1
1
1
1
1
1
1
1
1
1
1
1
1
1
1
1
1
1
1
1
1
1
1
1
1
1
1
1
1
1
1
1
1
1
1
1
1
1
1
1
1
1
1
1
1
1
1
1
1
1
1
1
1
1
1
1
1
1
1
1
1
1
1
1
1
1
1
1
1
1
1
1
1
1
1
1
1
1
1
1
1
1
1
1
1
1
1
1
1
1
1
1
1
1
1
1
1
1
1
1
1
1
1
1
1
1
1
1
1
1
1
1
1
1
1
1
1
1
1
1
1
1
1
1
1
1
1
1
1
1
1
1
1
1
1
1
1
VECTORS v double
-9.8348002 0.0029627614 0
-9.8347738 3.7200423e-05 0
-9.8347734 -1.6043702e-08 0
-9.8347734 -5.3384501e-11 0
-9.8347734 1.1342707e-13 0
-9.8347734 4.3091623e-14 0
-9.8347734 -2.1549444e-14 0
-9.8347734 -8.6805217e-14 0
-9.8347734 1.4642583e-15 0
-9.8347734 -4.4353755e-14 0
-9.8347734 -8.6205352e-14 0
-9.8347734 -1.2805524e-13 0
-9.8347734 -1.7362193e-13 0
-9.8347734 1.2922192e-13 0
-9.8347734 8.6210326e-14 0
-9.8347734 8.7489383e-14 0
-9.8347734 -1.3028209e-15 0
-9.8347734 -6.1606896e-18 0
-9.8347734 5.008463e-17 0
-9.8347734 -8.4989836e-14 0
-9.8347734 -9.8670112e-14 0
-9.8347734 5.3107528e-11 0
-9.8347734 1.6047476e-08 0
-9.8347738 -3.720042e-05 0
-9.8348002 -0.0029627614 0
9.8354686 0.001265846 0
9.8354671 -8.8635222e-07 0
9.8354667 -4.4544517e-09 0
9.8354667 -1.0197512e-11 0
9.8354667 7.3779146e-15 0
9.8354667 1.8574901e-16 0
9.8354667 -9.3211766e-17 0
9.8354667 -9.260808e-16 0
9.8354667 1.3279693e-15 0
9.8354667 -1.3250755e-15 0
9.8354667 -3.8147085e-16 0
9.8354667 5.6395674e-16 0
9.8354667 -1.8615504e-15 0
9.8354667 4.948645e-16 0
9.8354667 3.8569971e-16 0
9.8354667 1.5454923e-15 0
9.8354667 -1.1822228e-15 0
9.8354667 -5.1073603e-18 0
9.8354667 4.5485333e-17 0
9.8354667 7.2877512e-16 0
9.8354667 -8.0076808e-15 0
9.8354667 1.0190038e-11 0
9.8354667 4.4509826e-09 0
9.8354671 8.8634907e-07 0
9.8354686 -0.001265846 0
-9.8362251 0.0017918255 0
-9.8362751 1.3081582e-05 0
-9.8362746 -6.3759065e-09 0
-9.8362746 -1.5560226e-11 0
-9.8362746 4.9853726e-15 0
-9.8362746 3.409714e-16 0
-9.8362746 -1.731961e-16 0
-9.8362746 -1.1888473e-15 0
-9.8362746 1.1839326e-15 0
-9.8362746 -1.3622026e-15 0
-9.8362746 -7.0274278e-16 0
-9.8362746 -4.1028254e-17 0
-9.8362746 -2.3844664e-15 0
-9.8362746 9.8550184e-16 0
-9.8362746 7.06136e-16 0
-9.8362746 1.7397401e-15 0
-9.8362746 -1.0547532e-15 0
-9.8362746 -3.9801168e-18 0
-9.8362746 4.0755562e-17 0
-9.8362746 2.9365537e-16 0
-9.8362746 -5.3878931e-15 0
-9.8362746 1.5560489e-11 0
-9.8362746 6.3759923e-09 0
-9.8362751 -1.3081582e-05 0
-9.8362251 -0.0017918255 0
-10.00002 0.0016793926 0
-10.000024 1.1058955e-05 0
-10.000024 -5.4314503e-09 0
-10.000024 -1.2538331e-11 0
-10.000024 3.1281407e-15 0
-10.000024 -2.8552574e-18 0
-10.000024 -1.4063202e-18 0
-10.000024 -4.7920395e-16 0
-10.000024 1.1273403e-15 0
-10.000024 -9.7026949e-16 0
-10.000024 -1.6011607e-17 0
-10.000024 9.4044466e-16 0
-10.000024 -9.6419291e-16 0
-10.000024 -4.103126e-17 0
-10.000024 1.9121058e-17 0
-10.000024 1.0030804e-15 0
-10.000024 -1.0047214e-15 0
-10.000024 -3.4675274e-18 0
-10.000024 3.89173e-17 0
-10.000024 9.3385793e-16 0
-10.000024 -3.8457214e-15 0
-10.000024 1.2538052e-11 0
-10.000024 5.4314501e-09 0
-10.000024 -1.1058955e-05 0
-10.00002 -0.0016793926 0
-10 0.0016768647 0
-10 1.1059477e-05 0
-10 -5.4290414e-09 0
-10 -1.2539238e-11 0
-10 3.1280468e-15 0
-10 -2.9001231e-18 0
-10 -1.3549304e-18 0
-10 -4.7902717e-16 0
-10 1.1268117e-15 0
-10 -9.6982146e-16 0
-10 -1.6007593e-17 0
-10 9.3991765e-16 0
-10 -9.6361914e-16 0
-10 -4.1143016e-17 0
-10 1.908168e-17 0
-10 1.0026492e-15 0
-10 -1.0042642e-15 0
-10 -3.4676349e-18 0
-10 3.8830778e-17 0
-10 9.3370155e-16 0
-10 -3.8456214e-15 0
-10 1.2538961e-11 0
-10 5.4290412e-09 0
-10 -1.1059477e-05 0
-10 -0.0016768647 0
-10 0.0016768647 0
-10 1.1059478e-05 0
-10 -5.4290417e-09 0
-10 -1.253924e-11 0
-10 3.1285206e-15 0
-10 -2.7930604e-18 0
-10 -1.4212371e-18 0
-10 -4.7943009e-16 0
-10 1.1268148e-15 0
-10 -9.6984563e-16 0
-10 -1.6308204e-17 0
-10 9.3957763e-16 0
-10 -9.6424376e-16 0
-10 -4.0624784e-17 0
-10 1.9367106e-17 0
-10 1.0029098e-15 0
-10 -1.0043211e-15 0
-10 -3.4711555e-18 0
-10 3.8850061e-17 0
-10 9.334965e-16 0
-10 -3.8459547e-15 0
-10 1.2538964e-11 0
-10 5.4290415e-09 0
-10 -1.1059478e-05 0
-10 -0.0016768647 0
-10 0.0016768647 0
-10 1.1059478e-05 0
-10 -5.4290417e-09 0
-10 -1.253924e-11 0
-10 3.128468e-15 0
-10 -2.7878311e-18 0
-10 -1.4331329e-18 0
-10 -4.7920009e-16 0
-10 1.1269079e-15 0
-10 -9.7003646e-16 0
-10 -1.6242591e-17 0
-10 9.3966882e-16 0
-10 -9.6431698e-16 0
-10 -4.0593478e-17 0
-10 1.9420598e-17 0
-10 1.0029259e-15 0
-10 -1.0042922e-15 0
-10 -3.4664677e-18 0
-10 3.8802919e-17 0
-10 9.3353184e-16 0
-10 -3.8459127e-15 0
-10 1.2538963e-11 0
-10 5.4290415e-09 0
-10 -1.1059478e-05 0
-10 -0.0016768647 0
-10 0.0016768647 0
-10 1.1059478e-05 0
-10 -5.4290417e-09 0
-10 -1.253924e-11 0
-10 3.128519e-15 0
-10 -2.8305636e-18 0
-10 -1.4347685e-18 0
-10 -4.7921209e-16 0
-10 1.1269113e-15 0
-10 -9.7004009e-16 0
-10 -1.6168265e-17 0
-10 9.397419e-16 0
-10 -9.6442424e-16 0
-10 -4.0573063e-17 0
-10 1.9261563e-17 0
-10 1.0029356e-15 0
-10 -1.0042947e-15 0
-10 -3.4664324e-18 0
-10 3.8805343e-17 0
-10 9.3352218e-16 0
-10 -3.8458394e-15 0
-10 1.2538963e-11 0
-10 5.4290415e-09 0
-10 -1.1059478e-05 0
-10 -0.0016768647 0
-10 0.0016768647 0
-10 1.1059478e-05 0
-10 -5.4290417e-09 0
-10 -1.253924e-11 0
-10 3.1286368e-15 0
-10 -2.8250396e-18 0
-10 -1.404709e-18 0
-10 -4.7936451e-16 0
-10 1.1268613e-15 0
-10 -9.6996461e-16 0
-10 -1.6277265e-17 0
-10 9.3953526e-16 0
-10 -9.6435303e-16 0
-10 -4.0559066e-17 0
-10 1.9290343e-17 0
-10 1.0029478e-15 0
-10 -1.0042659e-15 0
-10 -3.4673112e-18 0
-10 3.8816635e-17 0
-10 9.3348015e-16 0
-10 -3.8459688e-15 0
-10 1.2538964e-11 0
-10 5.4290415e-09 0
-10 -1.1059478e-05 0
-10 -0.0016768647 0
-10 0.0016768647 0
-10 1.1059478e-05 0
-10 -5.4290417e-09 0
-10 -1.2539239e-11 0
-10 3.1284115e-15 0
-10 -2.8390296e-18 0
-10 -1.4313861e-18 0
-10 -4.794351e-16 0
-10 1.1269044e-15 0
-10 -9.6978577e-16 0
-10 -1.6235604e-17 0
-10 9.3959604e-16 0
-10 -9.642102e-16 0
-10 -4.0614367e-17 0
-10 1.9248812e-17 0
-10 1.0029163e-15 0
-10 -1.0042905e-15 0
-10 -3.4664677e-18 0
-10 3.8801184e-17 0
-10 9.3354143e-16 0
-10 -3.8456724e-15 0
-10 1.2538962e-11 0
-10 5.4290415e-09 0
-10 -1.1059478e-05 0
-10 -0.0016768647 0
-10 0.0016768647 0
-10 1.1059478e-05 0
-10 -5.4290417e-09 0
-10 -1.2539239e-11 0
-10 3.1284385e-15 0
-10 -2.7935538e-18 0
-10 -1.4246354e-18 0
-10 -4.7921026e-16 0
-10 1.1268097e-15 0
-10 -9.7006443e-16 0
-10 -1.6319755e-17 0
-10 9.3963336e-16 0
-10 -9.6429962e-16 0
-10 -4.0633452e-17 0
-10 1.93656e-17 0
-10 1.0029218e-15 0
-10 -1.0042973e-15 0
-10 -3.4711521e-18 0
-10 3.8823628e-17 0
-10 9.3351575e-16 0
-10 -3.8458155e-15 0
-10 1.2538963e-11 0
-10 5.4290415e-09 0
-10 -1.1059478e-05 0
-10 -0.0016768647 0
-10 0.0016768647 0
-10 1.1059478e-05 0
-10 -5.4290417e-09 0
-10 -1.253924e-11 0
-10 3.1285368e-15 0
-10 -2.7833033e-18 0
-10 -1.4026834e-18 0
-10 -4.7935295e-16 0
-10 1.1268579e-15 0
-10 -9.6996093e-16 0
-10 -1.6269743e-17 0
-10 9.3954506e-16 0
-10 -9.6424709e-16 0
-10 -4.057964e-17 0
-10 1.9448727e-17 0
-10 1.002938e-15 0
-10 -1.0042634e-15 0
-10 -3.4673288e-18 0
-10 3.8814525e-17 0
-10 9.334897e-16 0
-10 -3.8459099e-15 0
-10 1.2538963e-11 0
-10 5.4290415e-09 0
-10 -1.1059478e-05 0
-10 -0.0016768647 0
-10 0.0016768647 0
-10 1.1059478e-05 0
-10 -5.4290417e-09 0
-10 -1.253924e-11 0
-10 3.1285789e-15 0
-10 -2.835676e-18 0
-10 -1.434806e-18 0
-10 -4.7945888e-16 0
-10 1.1269113e-15 0
-10 -9.6979322e-16 0
-10 -1.6250049e-17 0
-10 9.3957663e-16 0
-10 -9.6434145e-16 0
-10 -4.0572934e-17 0
-10 1.9262103e-17 0
-10 1.0029355e-15 0
-10 -1.0042943e-15 0
-10 -3.46645e-18 0
-10 3.8804998e-17 0
-10 9.3352234e-16 0
-10 -3.8460982e-15 0
-10 1.2538964e-11 0
-10 5.4290415e-09 0
-10 -1.1059478e-05 0
-10 -0.0016768647 0
-10 0.0016768647 0
-10 1.1059478e-05 0
-10 -5.4290417e-09 0
-10 -1.253924e-11 0
-10 3.128562e-15 0
-10 -2.8321825e-18 0
-10 -1.4348181e-18 0
-10 -4.7921173e-16 0
-10 1.1269113e-15 0
-10 -9.7004045e-16 0
-10 -1.6250097e-17 0
-10 9.3965896e-16 0
-10 -9.6434155e-16 0
-10 -4.0572862e-17 0
-10 1.9262151e-17 0
-10 1.0029355e-15 0
-10 -1.0042943e-15 0
-10 -3.46645e-18 0
-10 3.8804998e-17 0
-10 9.3352218e-16 0
-10 -3.8460018e-15 0
-10 1.2538963e-11 0
-10 5.4290415e-09 0
-10 -1.1059478e-05 0
-10 -0.0016768647 0
-10 0.0016768647 0
-10 1.1059478e-05 0
-10 -5.4290417e-09 0
-10 -1.253924e-11 0
-10 3.1285624e-15 0
-10 -2.7912775e-18 0
-10 -1.4282001e-18 0
-10 -4.7923329e-16 0
-10 1.1268166e-15 0
-10 -9.7007293e-16 0
-10 -1.6334321e-17 0
-10 9.3961304e-16 0
-10 -9.6443218e-16 0
-10 -4.059168e-17 0
-10 1.9379346e-17 0
-10 1.0029411e-15 0
-10 -1.0043011e-15 0
-10 -3.4711555e-18 0
-10 3.882751e-17 0
-10 9.334964e-16 0
-10 -3.8459427e-15 0
-10 1.2538963e-11 0
-10 5.4290415e-09 0
-10 -1.1059478e-05 0
-10 -0.0016768647 0
-10 0.0016768647 0
-10 1.1059478e-05 0
-10 -5.4290417e-09 0
-10 -1.253924e-11 0
-10 3.1285856e-15 0
-10 -2.7842736e-18 0
-10 -1.4029743e-18 0
-10 -4.7935323e-16 0
-10 1.1268578e-15 0
-10 -9.6996027e-16 0
-10 -1.6270326e-17 0
-10 9.3954567e-16 0
-10 -9.6424634e-16 0
-10 -4.0579883e-17 0
-10 1.9448203e-17 0
-10 1.0029383e-15 0
-10 -1.0042641e-15 0
-10 -3.4673112e-18 0
-10 3.88149e-17 0
-10 9.3348969e-16 0
-10 -3.8459965e-15 0
-10 1.2538964e-11 0
-10 5.4290415e-09 0
-10 -1.1059478e-05 0
-10 -0.0016768647 0
-10 0.0016768647 0
-10 1.1059478e-05 0
-10 -5.4290417e-09 0
-10 -1.2539239e-11 0
-10 3.1283995e-15 0
-10 -2.8390055e-18 0
-10 -1.4313981e-18 0
-10 -4.7943515e-16 0
-10 1.1269044e-15 0
-10 -9.697858e-16 0
-10 -1.6235652e-17 0
-10 9.3959597e-16 0
-10 -9.6429182e-16 0
-10 -4.0614295e-17 0
-10 1.924886e-17 0
-10 1.0029163e-15 0
-10 -1.0042905e-15 0
-10 -3.4664677e-18 0
-10 3.8801184e-17 0
-10 9.3354138e-16 0
-10 -3.8457192e-15 0
-10 1.2538962e-11 0
-10 5.4290415e-09 0
-10 -1.1059478e-05 0
-10 -0.0016768647 0
-10 0.0016768647 0
-10 1.1059478e-05 0
-10 -5.4290417e-09 0
-10 -1.253924e-11 0
-10 3.1285189e-15 0
-10 -2.8288771e-18 0
-10 -1.4347445e-18 0
-10 -4.79212e-16 0
-10 1.1269113e-15 0
-10 -9.7004004e-16 0
-10 -1.6250568e-17 0
-10 9.3965964e-16 0
-10 -9.6434078e-16 0
-10 -4.0573207e-17 0
-10 1.9261467e-17 0
-10 1.0029355e-15 0
-10 -1.0042947e-15 0
-10 -3.4664324e-18 0
-10 3.8805343e-17 0
-10 9.3352228e-16 0
-10 -3.8458393e-15 0
-10 1.2538963e-11 0
-10 5.4290415e-09 0
-10 -1.1059478e-05 0
-10 -0.0016768647 0
-10 0.0016768647 0
-10 1.1059478e-05 0
-10 -5.4290417e-09 0
-10 -1.253924e-11 0
-10 3.1285208e-15 0
-10 -2.8286212e-18 0
-10 -1.4348555e-18 0
-10 -4.7921132e-16 0
-10 1.1269113e-15 0
-10 -9.7004078e-16 0
-10 -1.6249482e-17 0
-10 9.3965849e-16 0
-10 -9.6442357e-16 0
-10 -4.0572734e-17 0
-10 1.926269e-17 0
-10 1.0029354e-15 0
-10 -1.0042939e-15 0
-10 -3.4664677e-18 0
-10 3.8804653e-17 0
-10 9.3352234e-16 0
-10 -3.8458424e-15 0
-10 1.2538963e-11 0
-10 5.4290415e-09 0
-10 -1.1059478e-05 0
-10 -0.0016768647 0
-10 0.0016768647 0
-10 1.1059478e-05 0
-10 -5.4290417e-09 0
-10 -1.253924e-11 0
-10 3.1284381e-15 0
-10 -2.7704942e-18 0
-10 -1.4041931e-18 0
-10 -4.7931919e-16 0
-10 1.126891e-15 0
-10 -9.7002724e-16 0
-10 -1.6310811e-17 0
-10 9.3961159e-16 0
-10 -9.6434956e-16 0
-10 -4.0644861e-17 0
-10 1.9352009e-17 0
-10 1.0028639e-15 0
-10 -1.0042441e-15 0
-10 -3.4720309e-18 0
-10 3.8814079e-17 0
-10 9.3342299e-16 0
-10 -3.8458364e-15 0
-10 1.2538963e-11 0
-10 5.4290415e-09 0
-10 -1.1059478e-05 0
-10 -0.0016768647 0
-10 0.0016768647 0
-10 1.1059478e-05 0
-10 -5.4290417e-09 0
-10 -1.253924e-11 0
-10 3.1288883e-15 0
-10 -2.6730342e-18 0
-10 -1.4761385e-18 0
-10 -4.7972104e-16 0
-10 1.1271004e-15 0
-10 -9.7013404e-16 0
-10 -1.6388702e-17 0
-10 9.3952459e-16 0
-10 -9.6500855e-16 0
-10 -3.9974837e-17 0
-10 1.9483655e-17 0
-10 1.003098e-15 0
-10 -1.0043558e-15 0
-10 -3.467045e-18 0
-10 3.8876013e-17 0
-10 9.3301386e-16 0
-10 -3.8460569e-15 0
-10 1.2538963e-11 0
-10 5.4290415e-09 0
-10 -1.1059478e-05 0
-10 -0.0016768647 0
-10 0.0016768647 0
-10 1.1059478e-05 0
-10 -5.4290417e-09 0
-10 -1.253924e-11 0
-10 3.1288203e-15 0
-10 -2.7062837e-18 0
-10 -1.4572636e-18 0
-10 -4.7950506e-16 0
-10 1.1269368e-15 0
-10 -9.7010917e-16 0
-10 -1.6391889e-17 0
-10 9.3948968e-16 0
-10 -9.6488338e-16 0
-10 -4.0267519e-17 0
-10 1.9483621e-17 0
-10 1.0031447e-15 0
-10 -1.0044083e-15 0
-10 -3.4684709e-18 0
-10 3.8949631e-17 0
-10 9.3320769e-16 0
-10 -3.8460126e-15 0
-10 1.2538962e-11 0
-10 5.4290415e-09 0
-10 -1.1059478e-05 0
-10 -0.0016768647 0
-10 0.0016768648 0
-10 1.1059478e-05 0
-10 -5.4290512e-09 0
-10 -1.2539239e-11 0
-10 3.1282691e-15 0
-10 -2.7789849e-18 0
-10 -1.38903e-18 0
-10 -4.7914065e-16 0
-10 1.1267854e-15 0
-10 -9.6991805e-16 0
-10 -1.6172136e-17 0
-10 9.397762e-16 0
-10 -9.6399155e-16 0
-10 -4.1068043e-17 0
-10 1.9324223e-17 0
-10 1.0027738e-15 0
-10 -1.0044159e-15 0
-10 -3.4687392e-18 0
-10 3.8969116e-17 0
-10 9.334701e-16 0
-10 -3.8455783e-15 0
-10 1.2538961e-11 0
-10 5.4290511e-09 0
-10 -1.1059478e-05 0
-10 -0.0016768648 0
-10.000011 0.0016768783 0
-10.000011 1.1061164e-05 0
-10.000011 -5.4293691e-09 0
-10.000011 -1.2540578e-11 0
-10.000011 3.1303802e-15 0
-10.000011 -2.4304585e-18 0
-10.000011 -1.591286e-18 0
-10.000011 -4.8058493e-16 0
-10.000011 1.1267779e-15 0
-10.000011 -9.703563e-16 0
-10.000011 -1.7230971e-17 0
-10.000011 9.3824794e-16 0
-10.000011 -9.6675224e-16 0
-10.000011 -3.912633e-17 0
-10.000011 2.0462182e-17 0
-10.000011 1.0038894e-15 0
-10.000011 -1.0046962e-15 0
-10.000011 -3.4687805e-18 0
-10.000011 3.9247042e-17 0
-10.000011 9.3232601e-16 0
-10.000011 -3.8469829e-15 0
-10.000011 1.254029e-11 0
-10.000011 5.429369e-09 0
-10.000011 -1.1061164e-05 0
-10.000011 -0.0016768783 0
-10.001584 0.0015843037 0
-10.001677 1.1099476e-05 0
-10.001677 -5.2373712e-09 0
-10.001677 -1.25827e-11 0
-10.001677 3.0368405e-15 0
-10.001677 -2.0663097e-18 0
-10.001677 -1.6615915e-18 0
-10.001677 -4.6873075e-16 0
-10.001677 1.098187e-15 0
-10.001677 -9.4587019e-16 0
-10.001677 -1.7179725e-17 0
-10.001677 9.1401595e-16 0
-10.001677 -9.4300075e-16 0
-10.001677 -3.7687698e-17 0
-10.001677 2.0416476e-17 0
-10.001677 9.7874469e-16 0
-10.001677 -9.7929197e-16 0
-10.001677 -3.4688155e-18 0
-10.001677 3.84576e-17 0
-10.001677 9.0822336e-16 0
-10.001677 -3.7306933e-15 0
-10.001677 1.2582315e-11 0
-10.001677 5.2373713e-09 0
-10.001677 -1.1099476e-05 0
-10.001584 -0.0015843037 0
9.8348002 0.0029627614 0
9.8347738 3.7200423e-05 0
9.8347734 -1.6043882e-08 0
9.8347734 -5.3450091e-11 0
9.8347734 4.976207e-13 0
9.8347734 1.5337974e-13 0
9.8347734 -7.670572e-14 0
9.8347734 -3.0743057e-13 0
9.8347734 1.4636505e-15 0
9.8347734 -1.5466643e-13 0
9.8347734 -3.0683095e-13 0
9.8347734 -4.5899341e-13 0
9.8347734 -6.1487256e-13 0
9.8347734 4.6015977e-13 0
9.8347734 3.0683599e-13 0
9.8347734 3.0811474e-13 0
9.8347734 -1.3028371e-15 0
9.8347734 -6.2462688e-18 0
9.8347734 4.9915445e-17 0
9.8347734 -3.0561516e-13 0
9.8347734 -3.1929654e-13 0
9.8347734 5.3142793e-11 0
9.8347734 1.6047397e-08 0
9.8347738 -3.720042e-05 0
9.8348002 -0.0029627614 0
-9.8354686 0.001265846 0
-9.8354671 -8.8635224e-07 0
-9.8354667 -4.4546171e-09 0
-9.8354667 -1.036869e-11 0
-9.8354667 9.3375385e-14 0
-9.8354667 3.2798797e-14 0
-9.8354667 -1.640331e-14 0
-9.8354667 -6.6165555e-14 0
-9.8354667 1.3278391e-15 0
-9.8354667 -3.3945106e-14 0
-9.8354667 -6.5621357e-14 0
-9.8354667 -9.7295566e-14 0
-9.8354667 -1.3234068e-13 0
-9.8354667 9.8354151e-14 0
-9.8354667 6.5625542e-14 0
-9.8354667 6.678542e-14 0
-9.8354667 -1.1819517e-15 0
-9.8354667 -5.102596e-18 0
-9.8354667 4.5179113e-17 0
-9.8354667 -6.4511025e-14 0
-9.8354667 -7.3232079e-14 0
-9.8354667 1.011657e-11 0
-9.8354667 4.4510126e-09 0
-9.8354671 8.8634893e-07 0
-9.8354686 -0.001265846 0
9.8362251 0.0017918255 0
9.8362751 1.3081582e-05 0
9.8362746 -6.3759041e-09 0
9.8362746 -1.5556566e-11 0
9.8362746 7.3585834e-15 0
9.8362746 1.1412194e-15 0
9.8362746 -5.7367449e-16 0
9.8362746 -2.7899761e-15 0
9.8362746 1.1841945e-15 0
9.8362746 -2.1630142e-15 0
9.8362746 -2.3039299e-15 0
9.8362746 -2.4426394e-15 0
9.8362746 -5.5869789e-15 0
9.8362746 3.3873088e-15 0
9.8362746 2.3072169e-15 0
9.8362746 3.341213e-15 0
9.8362746 -1.0546137e-15 0
9.8362746 -3.9856167e-18 0
9.8362746 4.0648263e-17 0
9.8362746 -1.3076748e-15 0
9.8362746 -6.9556059e-15 0
9.8362746 1.5564493e-11 0
9.8362746 6.3759902e-09 0
9.8362751 -1.3081582e-05 0
9.8362251 -0.0017918255 0
10.00002 0.0016793926 0
10.000024 1.1058955e-05 0
10.000024 -5.4314503e-09 0
10.000024 -1.2538334e-11 0
10.000024 3.1256869e-15 0
10.000024 -3.1299841e-18 0
10.000024 -1.396087e-18 0
10.000024 -4.7815298e-16 0
10.000024 1.1274671e-15 0
10.000024 -9.7008787e-16 0
10.000024 -1.5114339e-17 0
10.000024 9.4212703e-16 0
10.000024 -9.6224082e-16 0
10.000024 -4.2566703e-17 0
10.000024 1.8165651e-17 0
10.000024 1.0024492e-15 0
10.000024 -1.0044625e-15 0
10.000024 -3.467697e-18 0
10.000024 3.8652164e-17 0
10.000024 9.3450531e-16 0
10.000024 -3.8436798e-15 0
10.000024 1.2538056e-11 0
10.000024 5.4314501e-09 0
10.000024 -1.1058955e-05 0
10.00002 -0.0016793926 0
10 0.0016768647 0
10 1.1059477e-05 0
10 -5.4290414e-09 0
10 -1.2539238e-11 0
10 3.1265067e-15 0
10 -3.1636469e-18 0
10 -1.3696894e-18 0
10 -4.7787886e-16 0
10 1.1270477e-15 0
10 -9.6974878e-16 0
10 -1.506138e-17 0
10 9.419466e-16 0
10 -9.6164544e-16 0
10 -4.2782306e-17 0
10 1.8096726e-17 0
10 1.0020357e-15 0
10 -1.0039865e-15 0
10 -3.469221e-18 0
10 3.8606439e-17 0
10 9.3423002e-16 0
10 -3.8443488e-15 0
10 1.2538962e-11 0
10 5.4290412e-09 0
10 -1.1059477e-05 0
10 -0.0016768647 0
10 0.0016768647 0
10 1.1059478e-05 0
10 -5.4290417e-09 0
10 -1.253924e-11 0
10 3.1267868e-15 0
10 -3.1174471e-18 0
10 -1.4232474e-18 0
10 -4.7806975e-16 0
10 1.1270668e-15 0
10 -9.698099e-16 0
10 -1.5196051e-17 0
10 9.4167326e-16 0
10 -9.6205538e-16 0
10 -4.2431227e-17 0
10 1.8340156e-17 0
10 1.0020923e-15 0
10 -1.0041433e-15 0
10 -3.4669226e-18 0
10 3.8672684e-17 0
10 9.3406348e-16 0
10 -3.8445864e-15 0
10 1.2538965e-11 0
10 5.4290415e-09 0
10 -1.1059478e-05 0
10 -0.0016768647 0
10 0.0016768647 0
10 1.1059478e-05 0