# vtk DataFile Version 4.0
hesp visualization file
ASCII
DATASET UNSTRUCTURED_GRID
POINTS 32 double
5.2914637 1.0777369 4
5.1267194 2.2297555 4
5.1267194 3.3825547 4
5.2914637 4.5345734 4
6.5696469 0.62667524 4
6.0846737 1.9926931 4
6.0846737 3.6196171 4
6.5696469 4.985635 4
8.5283347 0.23404508 4
7.1901147 1.4312588 4
7.1901147 4.1810514 4
8.5283347 5.3782652 4
9.9366184 -0.59173313 4
9.9427576 1.7821085 4
9.9427576 3.8302017 4
9.9366184 6.2040434 4
11.675692 -0.59173313 4
11.669553 1.7821085 4
11.669553 3.8302017 4
11.675692 6.2040434 4
13.083976 0.23404508 4
14.422196 1.4312588 4
14.422196 4.1810514 4
13.083976 5.3782652 4
15.042663 0.62667524 4
15.527637 1.9926931 4
15.527637 3.6196171 4
15.042663 4.985635 4
16.320847 1.0777369 4
16.485591 2.2297555 4
16.485591 3.3825547 4
16.320847 4.5345734 4
CELLS 0 0
CELL_TYPES 0
POINT_DATA 32
SCALARS m double
LOOKUP_TABLE default
1
1
1
1
1
1
1
1
1
1
1
1
1
1
1
1
1
1
1
1
1
1
1
1
1
1
1
1
1
1
1
1
VECTORS v double
-9.5165262 -0.062012 0
-11.381473 0.16760521 0
-11.381473 -0.16760521 0
-9.5165262 0.062012 0
-9.469293 -2.0059336 0
-12.028088 -1.3366338 0
-12.028088 1.3366338 0
-9.469293 2.0059336 0
-6.2867325 -8.721483 0
-10.676877 -6.3459605 0
-10.676877 6.3459605 0
-6.2867325 8.721483 0
-3.0262151 -7.8097109 0
-1.4515503 -0.93701791 0
-1.4515503 0.93701791 0
-3.0262151 7.8097109 0
3.0262151 -7.8097109 0
1.4515503 -0.93701791 0
1.4515503 0.93701791 0
3.0262151 7.8097109 0
6.2867325 -8.721483 0
10.676877 -6.3459605 0
10.676877 6.3459605 0
6.2867325 8.721483 0
9.469293 -2.0059336 0
12.028088 -1.3366338 0
12.028088 1.3366338 0
9.469293 2.0059336 0
9.5165262 -0.062012 0
11.381473 0.16760521 0
11.381473 -0.16760521 0
9.5165262 0.062012 0
