# vtk DataFile Version 4.0
hesp visualization file
ASCII
DATASET UNSTRUCTURED_GRID
POINTS 32 double
7.0047486 1.1547407 4
7.0281687 2.2558787 4
7.0281687 3.3564315 4
7.0047486 4.4575695 4
8.1059053 1.1781598 4
8.114522 2.264487 4
8.114522 3.3478233 4
8.1059053 4.4341505 4
9.2065779 1.178174 4
9.1980129 2.2644912 4
9.1980129 3.347819 4
9.2065779 4.4341363 4
10.309117 1.1550068 4
10.285907 2.2559113 4
10.285907 3.3563989 4
10.309117 4.4573035 4
11.303194 1.1550068 4
11.326403 2.2559113 4
11.326403 3.3563989 4
11.303194 4.4573035 4
12.405732 1.178174 4
12.414297 2.2644912 4
12.414297 3.347819 4
12.405732 4.4341363 4
13.506405 1.1781598 4
13.497788 2.264487 4
13.497788 3.3478233 4
13.506405 4.4341505 4
14.607562 1.1547407 4
14.584142 2.2558787 4
14.584142 3.3564315 4
14.607562 4.4575695 4
CELLS 0 0
CELL_TYPES 0
POINT_DATA 32
SCALARS m double
LOOKUP_TABLE default
1
1
1
1
1
1
1
1
1
1
1
1
1
1
1
1
1
1
1
1
1
1
1
1
1
1
1
1
1
1
1
1
VECTORS v double
9.9288183 -0.071335922 0
9.8358534 -0.027363853 0
9.8358534 0.027363853 0
9.9288183 0.071335922 0
9.9733441 -0.16430931 0
9.9699367 -0.031039698 0
9.9699367 0.031039698 0
9.9733441 0.16430931 0
10.03355 -0.16375904 0
10.038979 -0.030916164 0
10.038979 0.030916164 0
10.03355 0.16375904 0
10.062854 -0.05612586 0
10.221594 -0.026571891 0
10.221594 0.026571891 0
10.062854 0.05612586 0
-10.062854 -0.05612586 0
-10.221594 -0.026571891 0
-10.221594 0.026571891 0
-10.062854 0.05612586 0
-10.03355 -0.16375904 0
-10.038979 -0.030916164 0
-10.038979 0.030916164 0
-10.03355 0.16375904 0
-9.9733441 -0.16430931 0
-9.9699367 -0.031039698 0
-9.9699367 0.031039698 0
-9.9733441 0.16430931 0
-9.9288183 -0.071335922 0
-9.8358534 -0.027363853 0
-9.8358534 0.027363853 0
-9.9288183 0.071335922 0
