# vtk DataFile Version 4.0
hesp visualization file
ASCII
DATASET UNSTRUCTURED_GRID
POINTS 1250 double
39.159217 4.812309 4
33.418407 -4.8588259 4
33.916132 7.0091903 4
29.068483 -0.27380317 4
31.14368 3.9962245 4
31.778809 8.0999459 4
28.954999 7.0714607 4
33.786899 5.715512 4
29.112362 9.8952192 4
33.169421 13.46201 4
25.121893 13.895821 4
32.994167 16.061409 4
33.006266 15.310957 4
34.360206 19.53034 4
30.931051 16.116625 4
31.072607 18.191476 4
26.541943 18.003086 4
30.680073 17.269361 4
31.725355 21.298789 4
29.926138 19.644708 4
33.397685 22.132896 4
35.011734 31.110325 4
34.651968 27.141909 4
34.173982 30.162873 4
29.172323 31.33188 4
31.705991 -16.05653 4
28.540382 2.2171442 4
34.256633 -6.4513775 4
36.129165 5.6133991 4
38.178618 4.9919176 4
29.651433 8.8048022 4
31.69559 2.1021017 4
28.649557 10.970355 4
30.763971 10.744 4
29.895852 15.932034 4
33.040187 12.663587 4
28.062867 12.221056 4
29.515293 17.159378 4
28.314573 18.09822 4
29.336153 12.913526 4
34.109388 16.765209 4
33.072925 16.897408 4
31.7906 20.532522 4
28.614493 18.016552 4
28.009156 21.836926 4
29.104534 23.737346 4
34.748784 23.509964 4
34.273266 35.629481 4
31.4988 32.264402 4
31.705991 45.240543 4
31.783768 -5.9347062 4
33.179848 3.3291186 4
30.91446 9.0913549 4
32.708198 6.2983841 4
36.571008 5.2936829 4
28.640418 14.029505 4
30.601676 15.242343 4
32.464843 10.946352 4
31.220867 7.0455935 4
30.115314 10.607936 4
32.171273 10.653261 4
32.734281 12.973829 4
31.483945 15.886969 4
31.597525 16.250555 4
34.30135 17.764649 4
30.658722 17.836482 4
28.324477 19.554203 4
30.634306 20.759529 4
32.48823 19.793559 4
31.093569 20.892197 4
36.879933 22.265779 4
34.950655 27.776042 4
31.117263 28.002049 4
29.511031 25.563248 4
31.802652 35.099648 4
31.438215 -4.1450699 4
35.024924 -10.206178 4
32.599493 5.30983 4
35.089895 3.7535895 4
27.824843 2.8216895 4
29.632806 10.504277 4
32.785923 5.7658715 4
31.681718 12.178401 4
30.317457 11.525526 4
33.189356 7.4147444 4
31.013957 10.812437 4
28.445153 12.121627 4
26.964418 11.663275 4
31.897325 14.328126 4
30.822732 15.863294 4
30.703485 18.824582 4
37.796615 15.892756 4
30.343144 21.270392 4
32.699687 25.951823 4
28.432929 25.598016 4
34.202014 27.172499 4
35.5975 23.076848 4
29.391679 27.968963 4
35.024931 39.390194 4
31.535994 33.654563 4
31.957478 9.7022091 4
31.974463 2.0052644 4
34.793092 -2.6321599 4
36.252462 -0.67619086 4
33.500249 9.7243335 4
29.837184 0.6987505 4
31.703807 8.8202362 4
34.737051 14.163882 4
34.249403 13.630202 4
31.808988 14.783861 4
33.426889 16.236202 4
37.42903 17.247557 4
33.758737 15.127205 4
30.491379 16.897239 4
28.742631 16.077262 4
33.480037 17.135111 4
32.330354 17.625977 4
30.403625 21.763997 4
31.966345 24.825555 4
29.584675 18.857699 4
26.590884 13.939031 4
31.142609 19.497916 4
35.910939 29.80805 4
33.922461 26.220149 4
35.614722 22.458523 4
30.209845 -5.5986244 4
31.214472 -9.2755194 4
32.976699 0.88621298 4
28.18867 10.80932 4
32.590107 8.8201941 4
30.699453 1.3467199 4
35.88338 7.1129282 4
36.278397 6.9968358 4
30.909819 5.287817 4
35.663933 7.7460205 4
31.582292 12.750066 4
34.649421 12.834253 4
35.76059 8.3526135 4
34.299742 16.058015 4
36.271482 19.226752 4
33.531171 18.680895 4
31.386561 18.795672 4
30.915059 19.593145 4
30.238145 22.133131 4
27.639516 26.904688 4
34.71917 24.833299 4
30.714197 26.143769 4
33.69722 21.704201 4
31.21505 38.459696 4
30.220445 34.781811 4
31.433039 0.3823118 4
35.299043 -0.57835698 4
28.004141 -2.6777423 4
34.173959 3.5446933 4
26.771849 0.54048444 4
34.284502 8.5314311 4
38.997216 8.8747763 4
31.329847 6.5002721 4
31.994028 10.226882 4
34.361444 11.153183 4
31.219899 14.344666 4
34.806047 17.673516 4
34.846358 16.85526 4
33.565909 12.077226 4
33.524701 16.679414 4
35.54846 17.634554 4
30.619792 22.093439 4
33.257301 19.860396 4
32.693418 24.178042 4
31.304977 23.424321 4
29.956321 24.015903 4
36.438915 21.512455 4
26.481833 31.222287 4
36.685075 24.309296 4
33.936294 30.538654 4
40.937702 -10.913313 4
31.941084 2.4883409 4
34.304998 0.44104571 4
30.618146 6.834319 4
36.386708 5.815073 4
31.249328 4.912338 4
34.773531 9.3044598 4
35.495644 14.182566 4
34.596457 12.33957 4
37.566548 8.3106749 4
33.770212 11.256805 4
32.339513 14.007315 4
32.077151 14.620608 4
34.828187 16.575826 4
35.110464 12.74472 4
36.028193 16.308217 4
32.026473 21.215677 4
40.144705 22.845626 4
31.494917 20.038813 4
29.29518 19.017114 4
35.662627 29.040737 4
32.691021 26.824865 4
32.8962 26.968027 4
31.25222 25.778295 4
40.937702 40.097326 4
29.279127 1.1207168 4
29.189845 0.62591615 4
34.18201 -3.4082202 4
31.534208 10.850445 4
37.987285 6.5725417 4
35.826376 3.3244131 4
32.801584 8.4251182 4
34.285722 14.467 4
33.428727 14.684003 4
34.846436 13.803232 4
35.790938 14.808578 4
32.112368 15.091412 4
32.770331 18.869146 4
33.97829 16.566272 4
35.588644 22.00584 4
33.657938 13.511097 4
31.411858 19.488202 4
36.147523 20.35086 4
34.687201 17.095794 4
35.13549 20.9556 4
33.788996 22.972396 4
41.346658 21.576828 4
36.444668 34.548324 4
30.422138 26.714066 4
31.794172 27.537994 4
33.666402 -0.57557055 4
32.077035 -7.0122368 4
31.791844 -1.5471958 4
35.919054 4.1023852 4
34.288086 7.049631 4
34.510935 9.8451344 4
35.945657 10.946147 4
33.143613 11.750575 4
39.367503 9.5271642 4
37.864582 9.318345 4
36.187499 11.366818 4
35.409489 13.01415 4
32.961431 13.093068 4
37.021011 13.56646 4
35.996574 15.132935 4
37.848922 18.148071 4
37.379556 15.838032 4
31.49599 16.499877 4
36.896121 21.664841 4
38.149115 22.86082 4
33.745741 21.10598 4
36.416057 22.723771 4
34.291421 31.077709 4
32.077098 36.195633 4
32.122666 28.443206 4
36.00803 -1.3303206 4
35.943482 2.8454425 4
39.946947 5.2788228 4
31.497187 -2.3687489 4
40.320157 2.9498538 4
39.005403 6.1713394 4
36.679077 6.5761391 4
31.020997 9.8411282 4
36.081247 4.7975979 4
35.737762 11.639495 4
32.893711 9.3209846 4
37.805981 15.329847 4
35.820708 14.144789 4
35.110227 17.807331 4
35.729515 17.303619 4
35.261019 22.079904 4
37.720455 21.706915 4
32.966242 20.167998 4
33.378148 21.11487 4
37.841399 20.767989 4
37.873352 26.465735 4
31.549699 30.559574 4
33.446503 23.090201 4
35.600214 26.674118 4
28.946052 31.5056 4
30.028397 -3.721728 4
30.891617 -2.4510623 4
39.421994 10.468335 4
34.755559 0.69985501 4
33.750142 3.220486 4
34.040608 2.7235408 4
33.525975 7.5558572 4
31.599823 9.3772543 4
33.300756 10.739728 4
35.240977 10.635801 4
41.755474 14.395372 4
36.82512 12.419794 4
35.299067 15.932275 4
38.365942 14.310052 4
38.067035 18.395151 4
33.968763 18.803841 4
35.735052 18.893319 4
36.58505 20.074828 4
34.261759 20.969574 4
44.692293 25.028303 4
32.564135 20.951879 4
35.417851 25.94479 4
37.86615 16.621521 4
33.067701 33.012027 4
31.7938 33.032953 4
29.47041 -2.6509765 4
32.04126 -3.7324992 4
40.517302 2.767896 4
38.924065 6.6113518 4
37.288713 4.4096887 4
39.084951 5.3538048 4
38.626228 10.993029 4
36.215418 7.2972313 4
38.192076 11.894985 4
39.811526 15.164373 4
37.018154 14.374945 4
35.335561 12.446735 4
33.864146 15.962338 4
32.934551 15.5864 4
40.948942 16.623246 4
35.994438 19.976297 4
36.20426 21.805881 4
34.845118 18.370556 4
35.429225 20.067522 4
42.566761 24.213958 4
35.710238 23.408074 4
38.506749 25.670502 4
39.914167 26.836807 4
32.156462 35.809955 4
31.385535 31.146947 4
31.312113 -5.1120119 4
32.668746 1.8323069 4
33.857641 -2.6505336 4
34.504926 5.4120829 4
36.507418 1.493962 4
35.000239 11.822633 4
35.762858 10.546083 4
38.110357 5.8825698 4
36.968695 10.181545 4
35.536595 11.010096 4
38.037511 12.166932 4
37.694563 12.127963 4
40.494572 16.172765 4
38.136257 15.972316 4
36.637492 15.547599 4
38.258372 20.44106 4
37.485096 18.835587 4
37.375538 18.116001 4
34.655875 18.176015 4
38.784458 20.690773 4
38.868321 25.85256 4
34.453628 29.591439 4
34.436692 32.523692 4
35.266519 31.835013 4
31.677995 32.755684 4
35.183386 -5.2787186 4
31.134671 -0.44116955 4
36.99633 1.8489788 4
38.186997 3.5528319 4
34.629857 1.3000164 4
34.206465 6.3167649 4
34.937215 7.2512466 4
39.64174 7.9065207 4
39.337084 11.114352 4
37.730542 14.627979 4
37.315962 12.458123 4
39.324394 16.159388 4
41.191187 10.590128 4
40.150446 10.785228 4
37.079171 17.134212 4
39.352468 14.611648 4
37.925261 14.87508 4
39.894316 16.523583 4
34.835676 20.65296 4
39.566465 21.574674 4
37.837872 23.129911 4
34.837394 24.328529 4
32.205803 27.188322 4
31.865025 30.549141 4
35.198665 32.604865 4
36.708344 -3.4710517 4
36.873496 2.5244431 4
37.357184 8.1136534 4
35.794852 0.28623324 4
38.570415 9.2486606 4
37.612099 5.1060155 4
37.994843 8.6323063 4
39.712028 9.2976702 4
39.404228 8.5433265 4
42.093189 9.3664118 4
41.439216 12.004604 4
37.672579 11.480682 4
35.213504 14.795466 4
37.639965 17.031052 4
40.804711 14.292523 4
42.422162 15.906255 4
38.484982 19.113803 4
38.943377 19.786953 4
39.28558 21.570615 4
39.520021 19.190399 4
37.776782 24.254921 4
35.982825 26.257299 4
39.739818 26.520695 4
35.615136 24.196521 4
36.442525 33.000667 4
37.206946 -3.2498721 4
38.180683 5.2600541 4
37.329136 1.033513 4
41.289211 6.0524497 4
36.799455 3.6690024 4
37.582025 6.6899238 4
39.111205 7.9138592 4
37.903803 10.381279 4
37.142068 9.9474051 4
38.814816 11.548485 4
39.107696 12.684962 4
37.806962 14.277893 4
35.926319 12.378059 4
39.727412 18.523612 4
39.818488 17.532318 4
37.924886 17.866842 4
38.092162 19.160115 4
40.827512 18.213306 4
41.654641 21.097323 4
34.808483 23.080477 4
38.32449 23.11976 4
44.552934 23.569643 4
41.040917 30.995403 4
36.826499 26.269213 4
33.426437 33.231388 4
35.201351 -0.91505517 4
32.302234 1.2266966 4
36.028021 1.7086577 4
34.246032 5.6777168 4
36.123104 10.238732 4
37.982679 8.1465161 4
41.345283 4.9075959 4
42.270837 5.1056024 4
38.987008 10.552151 4
41.158008 12.863653 4
40.400745 9.731477 4
38.897074 13.780862 4
43.53011 11.849172 4
37.66462 17.542278 4
38.812427 16.482195 4
39.116477 18.276749 4
42.606007 19.123779 4
39.973928 20.118217 4
40.007277 19.606485 4
36.774756 22.684094 4
38.123368 23.283006 4
35.834733 25.824319 4
36.463248 28.035926 4
37.3509 29.12146 4
34.284216 28.419067 4
33.71603 -1.0914382 4
37.109736 -4.7990282 4
[...]
POINT_DATA 1250
SCALARS m double
LOOKUP_TABLE default
1
1
1
1
1
1
1
1
1
1
1
1
1
1
1
1
1
1
1
1
1
1
1
1
1
1
1
1
1
1
1
1
1
1
1
1
1
1
1
1
1
1
1
1
1
1
1
1
1
1
1
1
1
1
1
1
1
1
1
1
1
1
1
1
1
1
1
1
1
1
1
1
1
1
1
1
1
1
1
1
1
1
1
1
1
1
1
1
1
1
1
1
1
1
1
1
1
1
1
1
1
1
1
1
1
1
1
1
1
1
1
1
1
1
1
1
1
1
1
1
1
1
1
1
1
1
1
1
1
1
1
1
1
1
1
1
1
1
1
1
1
1
1
1
1
1
1
1
1
1
1
1
1
1
1
1
1
1
1
1
1
1
1
1
1
1
1
1
1
1
1
1
1
1
1
1
1
1
1
1
1
1
1
1
1
1
1
1
1
1
1
1
1
1
1
1
1
1
1
1
1
1
1
1
1
1
1
1
1
1
1
1
1
1
1
1
1
1
1
1
1
1
1
1
1
1
1
1
1
1
1
1
1
1
1
1
1
1
1
1
1
1
1
1
1
1
1
1
1
1
1
1
1
1
1
1
1
1
1
1
1
1
1
1
1
1
1
1
1
1
1
1
1
1
1
1
1
1
1
1
1
1
1
1
1
1
1
1
1
1
1
1
1
1
1
1
1
1
1
1
1
1
1
1
1
1
1
1
1
1
1
1
1
1
1
1
1
1
1
1
1
1
1
1
1
1
1
1
1
1
1
1
1
1
1
1
1
1
1
1
1
1
1
1
1
1
1
1
1
1
1
1
1
1
1
1
1
1
1
1
1
1
1
1
1
1
1
1
1
1
1
1
1
1
1
1
1
1
1
1
1
1
1
1
1
1
1
1
1
1
1
1
1
1
1
1
1
1
1
1
1
1
1
1
1
1
1
1
1
1
1
1
1
1
1
1
1
1
1
1
1
1
1
1
1
1
1
1
1
1
1
1
1
1
1
1
1
1
1
1
1
1
1
1
1
1
1
1
1
1
1
1
1
1
1
1
1
1
1
1
1
1
1
1
1
1
1
1
1
1
1
1
1
1
1
1
1
1
1
1
1
1
1
1
1
1
1
1
1
1
1
1
1
1
1
1
1
1
1
1
1
1
1
1
1
1
1
1
1
1
1
1
1
1
1
1
1
1
1
1
1
1
1
1
1
1
1
1
1
1
1
1
1
1
1
1
1
1
1
1
1
1
1
1
1
1
1
1
1
1
1
1
1
1
1
1
1
1
1
1
1
1
1
1
1
1
1
1
1
1
1
1
1
1
1
1
1
1
1
1
1
1
1
1
1
1
1
1
1
1
1
1
1
1
1
1
1
1
1
1
1
1
1
1
1
1
1
1
1
1
1
1
1
1
1
1
1
1
1
1
1
1
1
1
1
1
1
1
1
1
1
1
1
1
1
1
1
1
1
1
1
1
1
1
1
1
1
1
1
1
1
1
1
1
1
1
1
1
1
1
1
1
1
1
1
1
1
1
1
1
1
1
1
1
1
1
1
1
1
1
1
1
1
1
1
1
1
1
1
1
1
1
1
1
1
1
1
1
1
1
1
1
1
1
1
1
1
1
1
1
1
1
1
1
1
1
1
1
1
1
1
1
1
1
1
1
1
1
1
1
1
1
1
1
1
1
1
1
1
1
1
1
1
1
1
1
1
1
1
1
1
1
1
1
1
1
1
1
1
1
1
1
1
1
1
1
1
1
1
1
1
1
1
1
1
1
1
1
1
1
1
1
1
1
1
1
1
1
1
1
1
1
1
1
1
1
1
1
1
1
1
1
1
1
1
1
1
1
1
1
1
1
1
1
1
1
1
1
1
1
1
1
1
1
1
1
1
1
1
1
1
1
1
1
1
1
1
1
1
1
1
1
1
1
1
1
1
1
1
1
1
1
1
1
1
1
1
1
1
1
1
1
1
1
1
1
1
1
1
1
1
1
1
1
1
1
1
1
1
1
1
1
1
1
1
1
1
1
1
1
1
1
1
1
1
1
1
1
1
1
1
1
1
1
1
1
1
1
1
1
1
1
1
1
1
1
1
1
1
1
1
1
1
1
1
1
1
1
1
1
1
1
1
1
1
1
1
1
1
1
1
1
1
1
1
1
1
1
1
1
1
1
1
1
1
1
1
1
1
1
1
1
1
1
1
1
1
1
1
1
1
1
1
1
1
1
1
1
1
1
1
1
1
1
1
1
1
1
1
1
1
1
1
1
1
1
1
1
1
1
1
1
1
1
1
1
1
1
1
1
1
1
1
1
1
1
1
1
1
1
1
1
1
1
1
1
1
1
1
1
1
1
1
1
1
1
1
1
1
1
1
1
1
1
1
1
1
1
1
1
1
1
1
1
1
1
1
1
1
1
1
1
1
1
1
1
1
1
1
1
1
1
1
1
1
1
1
1
1
1
1
1
1
1
1
1
1
1
1
1
1
1
1
1
1
1
1
1
1
1
1
1
1
1
1
1
1
1
1
1
1
1
1
1
1
1
1
1
1
1
1
1
1
1
1
1
1
1
1
1
1
1
1
1
1
1
1
1
1
1
1
1
1
1
1
1
1
1
1
1
1
1
1
1
1
1
1
1
1
1
1
1
1
1
1
1
1
1
1
1
1
1
1
1
1
1
1
1
1
1
1
1
1
1
1
1
1
1
1
1
1
1
1
1
1
1
1
1
1
1
1
1
1
1
1
1
1
1
1
1
1
1
1
1
1
1
1
1
1
1
1
1
1
1
1
1
1
1
1
1
1
1
1
1
1
1
1
1
1
1
1
1
1
1
1
1
1
1
1
1
VECTORS v double
-5.6129053 -6.9654433 0
4.5427323 -10.037512 0
-4.1210247 3.1419168 0
8.8683346 -3.3669441 0
5.496454 -5.999664 0
4.7851764 -5.4771399 0
4.0459446 2.3990177 0
-0.62744258 -2.0437822 0
-0.54242881 -2.8838175 0
2.3358135 -4.9308344 0
-7.9294311 -4.2603001 0
-0.8477696 4.2936251 0
-1.2841748 9.5938008 0
-11.475602 2.6421944 0
7.1924728 10.643623 0
-12.22543 -1.4663834 0
7.0609923 -0.06303119 0
1.3243989 -5.7982309 0
-14.231518 2.8009284 0
-0.53641676 -2.3155554 0
19.24053 0.17290508 0
-3.8434116 10.934897 0
-4.6595225 9.608238 0
-0.13867767 0.92467544 0
6.4429722 1.8469951 0
2.6309649 -13.726701 0
-9.211701 4.4168058 0
5.3671371 -9.5902144 0
-4.4181623 -4.719614 0
5.2368894 -2.0210121 0
6.5998825 2.9250287 0
8.8770896 -7.3851905 0
-6.0301794 3.7612201 0
-13.349074 9.7501765 0
2.3784084 6.1903087 0
-2.3695759 -2.0895331 0
0.98342062 -1.4113069 0
-1.061842 -2.9010578 0
-4.543959 0.62879299 0
6.639365 8.9819128 0
6.9349105 9.1690494 0
-7.475685 -0.76846389 0
-6.9740408 7.3662197 0
-2.8360123 -5.6197289 0
-10.869839 4.6956843 0
-8.4805627 4.3323167 0
-12.893766 11.637966 0
5.3884155 9.5854578 0
-4.3337919 10.99691 0
2.630965 13.726701 0
-0.30264179 -9.4875326 0
-4.5541624 -3.6061715 0
10.499269 -2.1324513 0
-10.884595 4.1994376 0
2.9279583 -6.1724204 0
-6.2237807 14.625915 0
2.8796536 8.7681449 0
-18.149466 5.4942495 0
2.3796043 0.24967277 0
1.250898 -26.830048 0
3.8641033 2.2565428 0
-1.3359208 -5.5867165 0
-2.1795416 8.210296 0
20.448858 -10.655829 0
-11.200168 2.2088083 0
-6.0087314 0.27365407 0
-12.699073 -7.0306164 0
-3.017822 13.407848 0
-12.375951 0.80223833 0
2.7464342 7.1421035 0
1.5496862 14.447766 0
-2.3171765 7.7464716 0
-9.4494771 2.6462402 0
-7.0798013 11.288636 0
-0.18818984 9.4796605 0
-0.22964783 -3.6190045 0
6.8350487 -10.617898 0
5.6360826 -1.7414659 0
11.122772 -2.1326289 0
-0.070503455 -0.21800118 0
4.8061532 -3.9598572 0
-3.3198651 -3.4864863 0
11.422354 -4.7089294 0
5.4874672 -13.808343 0
-3.4084977 -9.6556165 0
-2.3056833 -3.0233209 0
1.4487152 -1.9501584 0
-7.0181897 -6.3302708 0
6.0107695 -8.1289819 0
-1.641497 -4.0910877 0
0.028592609 -9.1188862 0
10.635158 -18.153954 0
-5.529647 10.085586 0
0.74116376 9.9994184 0
-5.5978184 1.0448028 0
1.9940773 8.2493638 0
8.220478 -6.792086 0
-4.4448114 6.8407925 0
6.8350551 10.617903 0
1.3937704 8.8831192 0
3.286113 1.7996182 0
-9.8894566 -7.4748324 0
-4.1840924 -6.8547997 0
-6.0751485 -10.908029 0
4.1642076 -1.7853797 0
4.1176608 -1.9817159 0
4.3102193 -8.0468358 0
-0.73384069 0.10742705 0
0.59989879 7.8971143 0
-5.5284775 -7.3661855 0
1.6080041 0.71258446 0
-1.8126582 -8.8097037 0
1.5183342 -1.556889 0
7.1448449 4.0526529 0
3.1309055 10.4728 0
-0.87999004 5.638514 0
8.5667006 -4.6971767 0
3.4829117 5.1913516 0
2.0293499 3.425818 0
2.3762345 2.9191258 0
-9.0196474 -14.226502 0
4.2478884 3.2650214 0
9.6189367 -1.0614996 0
-2.8306889 9.2031679 0
-0.1846651 9.5124398 0
1.089759 -6.3411769 0
-1.9959865 -10.927606 0
5.4249153 0.36024906 0
-12.923086 -9.0299277 0
11.925915 -0.10754549 0
-2.3092982 -12.464328 0
-2.1925484 3.8186858 0
6.1533495 -15.913046 0
-7.1308088 -3.6450809 0
3.1169505 -1.7469756 0
2.4544181 4.4219662 0
-4.1782955 6.3764281 0
15.372357 -6.287791 0
5.411475 -6.3446826 0
1.9947062 3.6992028 0
-5.588555 0.30883544 0
-0.83897301 -9.1151312 0
-6.720376 -3.7137509 0
-4.9432681 3.9814082 0
-15.702833 6.4898548 0
2.924149 5.4276306 0
2.4790653 -2.1993567 0
-2.1123546 0.92027461 0
-1.995398 10.927775 0
1.2603979 6.3268335 0
-9.087522 -3.3946522 0
-5.7300721 -8.56694 0
-0.44641468 -8.8551566 0
1.2228648 -13.146417 0
-5.2446899 -1.6650166 0
-1.7991448 -2.544441 0
15.497994 -4.886965 0
-3.0113593 -9.0509847 0
-11.104572 -15.247761 0
0.22478233 1.4845707 0
-6.7562752 2.851248 0
-1.9799207 -6.1264438 0
-2.8315767 -11.914593 0
-7.1639935 0.09621068 0
-3.3909552 -2.8554493 0
-1.5321177 0.96882878 0
-2.9847655 4.7182707 0
-6.7711728 8.1265852 0
-1.7428838 9.2372388 0
16.743747 14.603229 0
-0.99893822 -4.7939654 0
6.4896887 -3.3115236 0
-6.9678362 7.2222331 0
-8.3237985 3.0870487 0
6.490527 1.2332644 0
4.8370531 -9.9977527 0
-2.356067 -0.043516634 0
2.4205433 -18.599267 0
4.0273039 8.9664866 0
7.0288661 -4.046006 0
0.58241926 -1.9784756 0
13.157833 -5.6854114 0
-6.1148669 9.1925148 0
0.46751736 8.0870886 0
9.6097562 -4.2908683 0
-2.187433 -0.46375763 0
10.180587 9.494761 0
-12.611277 -5.2550404 0
-1.8998166 -1.4836193 0
-7.4925402 -1.4284697 0
7.1417612 2.0416003 0
1.8372473 -0.044895638 0
-0.81159461 13.47867 0
-9.4446158 3.9254272 0
-11.227988 0.017407483 0
3.1127919 4.5827053 0
-2.786075 6.5185474 0
-6.5667518 -1.0575717 0
1.2657445 -2.0182075 0
4.8370532 9.9977527 0
2.8885724 -4.0943424 0
8.5835237 -12.391989 0
-5.5714537 -7.3574241 0
-5.3261374 11.409641 0
1.3630935 3.9711637 0
0.7418275 -0.50964116 0
0.60498309 8.9070866 0
1.7346419 2.9977219 0
-1.0222543 7.8329417 0
4.6362933 11.427546 0
-5.2940092 -9.9480212 0
-9.0288471 1.1239662 0
-10.918063 -3.5611964 0
2.5155423 -4.1411373 0
-2.4447371 11.842898 0
-11.522532 -9.0586197 0
-6.0532445 7.6824874 0
3.9535115 11.442159 0
-1.3837732 11.644125 0
-1.6380235 -5.7896147 0
-6.9750765 8.7992806 0
8.0802893 -4.5871259 0
-1.1845447 12.284483 0
-1.0976477 9.3917564 0
4.5419121 2.3102966 0
-2.3993197 2.8629059 0
-3.9329277 -8.25284 0
-8.2353569 -10.29463 0
-12.773425 -8.0688818 0
-3.3641293 -1.6154399 0
-4.3624936 5.815427 0
-10.032731 4.2634927 0
-1.1904537 6.0962804 0
-4.1513437 1.0939759 0
-2.9181925 -0.63101431 0
7.4909379 -0.40675837 0
-6.7707168 3.9871092 0
6.3234667 -6.3396018 0
-9.0391502 -14.889333 0
-10.204252 -5.511343 0
-2.8497043 -2.233575 0
13.187573 -12.862914 0
-2.2882449 -4.9960532 0
2.6750455 -13.103024 0
-0.24853778 1.0816818 0
-6.7400799 0.35105049 0
-10.647245 0.10952422 0
-3.8795306 17.217642 0
-3.9230166 8.1853382 0
-2.7378728 -2.113183 0
11.523759 -2.1283528 0
1.7289118 -5.2715045 0
6.518122 -0.29548926 0
-2.2961286 -13.300076 0
-14.442895 3.1271587 0
-7.6364623 3.6393303 0
3.13264 1.3075644 0
-18.926033 1.4887149 0
-9.0155526 1.8038503 0
-2.2441255 3.0313057 0
-1.7428394 -11.979442 0
6.6097657 18.121107 0
-13.446346 5.1675594 0
16.799692 0.82589822 0
10.726238 0.33649852 0
-10.360385 1.9424791 0
-2.2800227 0.66472332 0
5.1830557 4.8585151 0
-12.265725 1.0491296 0
-3.8393934 7.1492751 0
7.3862647 -0.96305059 0
-4.6937794 5.807888 0
-1.1495694 -5.4343726 0
-7.1703611 4.452461 0
-4.081439 9.2597613 0
-8.9895598 -6.6561268 0
-7.4466135 -4.5204397 0
8.4489295 -6.3602362 0
-5.8314538 -11.583404 0
-4.6368683 7.0513542 0
-3.4090943 -13.83511 0
-8.0773023 0.39101097 0
-5.7487957 7.4853393 0
-0.071740632 0.41676093 0
-6.4074718 4.4077938 0
16.253524 4.2865754 0
2.4282261 8.7988166 0
17.58149 7.4977941 0
-0.81483901 -4.9475837 0
3.6476983 0.094964788 0
17.488596 0.98978204 0
6.9542839 5.4777546 0
-2.8852194 2.075384 0
0.50808393 -0.33824821 0
10.033905 6.1798398 0
-9.4998454 13.679153 0
-5.4529404 -2.0927086 0
7.7613855 4.1667046 0
0.19610226 9.3656578 0
7.5586168 9.1206144 0
7.3336762 -5.8883014 0
8.0382252 -7.0399063 0
-1.0499599 -4.1757866 0
1.2227635 0.61061087 0
-2.640486 -2.4064099 0
0.063327976 -8.2782781 0
-1.2235635 -0.90243602 0
3.337455 -7.3489451 0
1.6174691 10.490276 0
12.082332 11.001954 0
-1.2961287 0.55888191 0
9.6930704 -1.4849456 0
-11.906311 2.8600978 0
-6.1553177 6.7240706 0
-7.5264915 6.5473079 0
0.019236925 -8.3536967 0
13.412727 13.501734 0
-8.5456734 7.3024909 0
-5.6758248 6.9394042 0
9.9676234 4.334732 0
-6.5614248 -5.2110426 0
1.7645581 3.89418 0
-5.3760338 2.6853255 0
-2.4719103 17.763007 0
6.6667138 16.561262 0
2.1601872 -14.006524 0
-8.9167098 -0.62597888 0
-4.1201667 -9.0343304 0
4.3187241 -3.8029633 0
-6.2469158 -7.284125 0
-8.2602403 10.930791 0
-11.8853 7.0088175 0
4.7776204 7.4461925 0
-4.5007645 -3.945957 0
-12.107054 -4.7683752 0
-11.784103 0.78411206 0
3.7527184 -4.7455421 0
8.8199233 2.5136406 0
-8.4020417 -10.335596 0
3.8307088 4.581874 0
-4.5082137 1.7905215 0
-5.2274314 2.2436032 0
5.8081394 -2.474473 0
-9.8324732 3.7794132 0
-12.61049 2.1534774 0
2.3086239 4.0775536 0
-3.0484202 9.9299682 0
-11.719012 14.538367 0
0.71087861 8.7911203 0
-5.0136212 3.4001204 0
-3.117803 -11.672387 0
-7.6652596 -2.9407495 0
-0.0038982139 1.3426199 0
-6.6579433 -9.3392653 0
-12.594442 -1.9865447 0
-11.757577 -1.9950216 0
-6.0981384 7.3267143 0
1.0490203 -3.5888793 0
-2.19922 15.584215 0
-1.118967 -1.4752925 0
-0.80039833 0.66834756 0
-16.007124 -9.2526589 0
13.428842 -3.2938417 0
3.1667236 -10.539419 0
-1.8365696 4.8750404 0
23.420745 -3.6851754 0
-1.4452799 3.8052833 0
8.5961255 -0.4059291 0
2.2686139 -2.9178512 0
9.6851108 1.2427585 0
3.643598 2.5358487 0
-2.9329199 1.1964006 0
-9.5878279 0.70914556 0
-5.1084849 8.2831051 0
2.5384419 12.609736 0
-1.571777 -6.7410206 0
-0.13349171 -6.0372303 0
-5.3912569 2.0395887 0
-6.146546 -4.1818252 0
-8.0602943 -11.79594 0
2.9894159 -1.4492396 0
-6.9757192 2.2318014 0
7.9165546 -3.4652985 0
-11.742116 -0.34973806 0
5.7680401 -2.536765 0
6.1274714 -0.97681019 0
-7.6132078 1.1620583 0
-13.640537 3.8537686 0
13.063969 1.4500767 0
10.088774 -4.84826 0
9.6399104 -7.2217149 0
-6.9282075 -2.178049 0
6.0856535 -15.025806 0
4.703916 -2.0122973 0
8.7150713 -9.5335083 0
1.8173307 -0.061514965 0
-0.061810211 0.40516692 0
-5.7860857 10.622274 0
-5.8792644 3.025816 0
-2.296567 7.6065372 0
10.183245 -11.215288 0
5.6455987 -1.3159346 0
-11.532523 -2.8111537 0
-7.5357063 -3.7234672 0
-2.8236135 -2.5519864 0
-4.4592361 -4.383438 0
-2.5089297 -2.0733023 0
-3.127571 7.5383622 0
-9.3231924 -0.98307903 0
4.0501904 2.4755047 0
-1.4723707 -2.5046291 0
-10.262851 -1.3637161 0
-4.1699481 -12.622818 0
-3.402984 -0.31700646 0
-13.495184 -0.92151009 0
-10.226849 -0.62278462 0
1.6672066 10.251725 0
-2.3761351 -8.4077307 0
6.0344593 4.8617854 0
-13.760175 -2.1517967 0
0.73167308 11.629978 0
4.7787183 -2.4509217 0
-1.9345475 9.3928058 0
-3.2592088 1.2423524 0
-8.6516804 13.443853 0
-6.2993241 -4.4423501 0
-12.056392 1.7490016 0
-8.397098 -4.4183024 0
-11.467724 -13.414848 0
0.52142807 -0.42262752 0
-8.4966889 3.5695801 0
1.4006312 -7.3031689 0
-4.5298141 -6.8095079 0
-0.71836722 12.665836 0
-3.8971828 11.366914 0
-10.866988 -6.9060723 0
-4.461533 4.8744455 0
6.8656272 -5.3392672 0
1.6429268 10.125172 0
3.9068054 2.408129 0
-10.248093 0.19384937 0
9.7491346 5.7444392 0
-3.7949421 -0.14195189 0
2.5375012 -4.3165181 0
0.58005385 -7.6367571 0
7.5412085 6.1206489 0
-7.8218832 1.0556424 0
-3.4214917 3.547441 0
6.2484493 1.8486548 0
-9.7200136 -2.1726318 0
-7.6581887 -13.402377 0
-6.4497179 -10.20715 0
-9.3382674 -5.3399943 0
7.3379504 0.78014342 0
8.3879676 -2.1458243 0
-2.311686 -10.680872 0
-6.8509802 -6.7849745 0
-5.3013021 -8.5233802 0
-7.0265768 8.8123455 0
-1.1136847 -0.26087399 0
-6.9656344 5.2518131 0
-2.519381 -2.5190656 0
4.2397849 7.2855656 0
-9.589394 3.6506037 0
-2.9152286 -0.31727439 0
-2.8371352 10.092377 0
-14.051065 -3.6194962 0
-0.7136774 -0.51510234 0
4.5220495 -0.043266237 0
-6.8248201 3.7752585 0
-11.338557 1.631532 0
4.3919708 3.9603807 0
5.3777563 -1.716916 0
-6.7247368 10.490814 0
6.2367661 10.04633 0
-12.002759 -8.0752587 0
-2.4030912 0.1789695 0
-6.8216293 -5.6869849 0
-7.0561131 -5.9618011 0
8.2637031 -7.9403701 0
-8.9929285 -6.7183357 0
-0.95499108 -8.8836204 0
6.1251443 0.60304244 0
-9.6884012 -13.321007 0
6.5335498 12.803772 0
-9.4701026 11.927445 0
-2.65536 -5.8693417 0
-2.5299025 -2.5080207 0
-5.8943955 -6.7743433 0
3.2971207 -7.1953393 0
15.382599 -10.436668 0
-3.7935319 -11.602246 0
-6.7487911 6.1018498 0
1.3955064 7.3166316 0
9.7306701 8.335305 0
-11.221285 1.0210854 0
-5.7396992 -4.1465372 0
-9.3749882 -3.6199069 0
-10.242088 -0.17037946 0
-10.358813 0.62496336 0
-3.2147034 -9.796527 0
1.0465159 5.6098878 0
9.6823063 5.0677371 0
-2.6328129 -9.0546459 0
-3.8519572 8.5602322 0
2.3469638 -4.7885872 0
-0.66105486 -7.161434 0
-10.241387 -5.4880456 0
8.6324821 -4.4552071 0
9.9509501 0.17901083 0
-1.4229814 5.9885953 0
-0.63550306 1.4297102 0
15.032557 2.4980921 0
0.93883039 -2.8292785 0
-10.088019 -5.3695157 0
9.9802818 -0.12420605 0
13.502796 -7.0336411 0
-6.5268321 -4.1457713 0
1.3213311 5.3572426 0
-0.52732894 10.525379 0
4.5769132 10.147257 0
-4.8950013 4.0588691 0
-7.8943041 6.8159233 0
-9.9216728 -0.28241459 0
-10.007229 -0.086177439 0
-10.045849 0.046415722 0
-1.509189 3.8758211 0
-14.056017 -3.3466916 0
12.720839 8.1929123 0
3.718817 -4.2252747 0
3.6915871 7.6223729 0
6.7367123 -1.5508398 0
9.0085669 5.1636208 0
9.49735 -0.1420513 0
9.9977221 -0.0044061618 0
9.9960943 -0.2158208 0
3.072153 -10.742288 0
-12.762671 -3.3546007 0
7.1518654 0.25844847 0
9.9938639 -0.27022827 0
9.9914955 0.0084223777 0
4.776521 -3.884795 0
9.8053392 -3.115791 0
-9.5354734 6.3482152 0
-5.6353575 6.2479619 0
-2.8941773 -3.2764327 0
-8.8854087 1.2268847 0
2.4178586 -1.7158877 0
-10.197695 0.11833625 0
-9.4066648 5.2506531 0
-10.167876 0.11954317 0
-10.613186 -0.67107045 0
-2.9023219 6.4796147 0
-8.0146527 4.9089149 0
3.2518227 7.1835381 0
2.8320814 0.54983952 0
8.5731112 9.2816713 0
9.7680085 -0.087914822 0
9.9727944 -0.0045392125 0
9.999091 -0.00053862702 0
9.999776 0.00085786758 0
10.001676 -0.0040415247 0
-10.242854 0.16982961 0
10.00096 0.033291158 0
9.9997897 0.0013768212 0
9.999538 8.5151584e-05 0
9.9970935 0.0012562492 0
9.867213 0.060503204 0
11.592531 -2.2962903 0
-4.270021 -5.2132435 0
-0.58765285 0.4855646 0
-6.6284481 2.3584815 0
-5.7932802 7.5394294 0
-7.3244707 1.4448012 0
-12.041289 3.3022396 0
-6.5703177 -8.4618383 0
-3.8841059 -7.6461908 0
-7.3370212 2.0959247 0
3.8072926 -2.9114629 0
-4.9823752 -2.115686 0
9.9014075 -1.1996569 0
5.7791065 4.8856079 0
9.9973862 -0.0057404739 0
10.000427 -3.0879008e-05 0
10.000464 -3.6740326e-06 0
10.000479 -4.5427563e-07 0
10.0007 6.9621014e-05 0
10.003553 -0.001224222 0
10.000694 0.00048700824 0
10.000476 -3.6099649e-06 0
10.000478 6.9710284e-07 0
10.000448 4.7964429e-05 0
9.9759601 0.029565554 0
6.6007432 -6.1296176 0
9.9288008 1.2255621 0
-4.4145437 2.5470608 0
1.3269831 8.4325216 0
-10.195953 0.067828676 0
-10.109682 -0.21404972 0
-10.001216 -0.01556146 0
-10.022484 0.035923552 0
-9.8497474 -0.37389267 0
-10.297199 0.27160944 0
-2.6826632 -6.0271479 0
11.482888 1.2829035 0
9.8372002 -0.062372889 0
9.9865548 -0.0017773639 0
9.9938049 -0.00011233946 0
9.9938914 -5.3630158e-06 0
9.9938947 2.1286864e-09 0
9.9938947 -8.896001e-09 0
9.9938941 3.844055e-07 0
9.9939139 -7.8714468e-07 0
9.9938945 2.5716812e-07 0
9.9938947 -4.5723927e-08 0
9.9938947 -1.8859085e-09 0
9.9938902 5.7128281e-06 0
9.9938085 6.903937e-05 0
9.9907656 0.0013058596 0
9.8746719 0.05008556 0
10.408171 -0.22794554 0
-12.198238 2.8509584 0
-9.9732424 -0.18703899 0
-10.015634 -0.00026897239 0
-10.01422 -0.014212876 0
-3.478768 7.0961485 0
-5.8159301 -5.0331353 0
-4.364882 -11.556422 0
-4.0335179 -0.17910255 0
-2.7129923 -16.981606 0
-13.612054 -6.5779434 0
3.337079 3.3830558 0
0.85975837 -2.0104562 0
0.97207799 8.9819785 0
-17.816061 -2.8963078 0
1.8148032 11.570929 0
-14.032295 -9.1071514 0
-2.790712 -20.022251 0
5.8662347 3.7101545 0
-2.2038164 2.9083709 0
-10.174791 -7.5768679 0
0.35376143 2.2487439 0
3.3609754 5.9869268 0
7.7164521 2.6048486 0
-0.34307404 -2.1630705 0
0.29778486 -2.7521748 0
1.805777 14.347387 0
-8.9820143 -3.2424325 0
-6.5388143 -4.450283 0
3.7028987 13.668234 0
-2.6309649 -13.726701 0
-0.89891171 -11.221991 0
-5.3659422 -9.6141873 0
8.6638817 2.5088789 0
-4.4147819 0.78489338 0
6.3879631 5.3317617 0
2.4799943 0.85863035 0
-0.25021596 8.7044803 0
-11.400163 -11.820802 0
16.583456 -10.889284 0
-14.815502 2.4906682 0
7.3647991 -2.3896619 0
-0.67462406 -1.2175179 0
-6.599457 -11.284189 0
7.8056248 -7.283282 0
1.9032112 5.6679071 0
-8.9153605 -7.4846368 0
-17.372832 -7.9097128 0
-0.69735489 2.0948524 0
-1.6806324 15.718406 0
-8.6083563 6.7910001 0
-0.019491767 1.0687728 0
-8.2201275 11.954671 0
8.0932697 7.2995783 0
-2.630965 13.726701 0
0.30489194 -9.4775686 0
-5.7286862 0.28516139 0
7.9694298 -0.24330973 0
-4.6564309 -16.362929 0
5.4442174 3.9364952 0
-1.956535 -5.1766598 0
5.276475 -12.908275 0
2.6948952 -13.47085 0
-8.1353092 -1.0688255 0
0.33998936 -4.7720645 0
9.7676109 2.3263671 0
11.922122 1.6401427 0
-10.048974 9.4434253 0
6.3419922 14.28138 0
-8.4264367 6.2693344 0
-18.5603 -0.40130569 0
9.3692958 8.0297765 0
1.7907527 -0.31267456 0
-1.6173612 9.971195 0
9.2856555 -1.4651031 0
0.028558913 2.6160416 0
6.5379449 4.9456602 0
-4.1523707 3.1068358 0
-8.4195664 -1.8471149 0
0.27249436 9.461805 0
-0.037243118 -3.5870228 0
-6.8350487 -10.617899 0
-4.9977536 -3.4933476 0
-4.6720326 -11.141375 0
3.1631581 -5.738839 0
-1.2296883 -5.2814958 0
13.225124 -13.019204 0
1.8360173 -9.1955349 0
-7.5085103 2.7549197 0
3.2264986 -4.1618754 0
-2.6185361 -1.2414434 0
1.7146146 8.8647842 0
3.9386433 15.151372 0
2.8632767 -15.114086 0
-10.299975 9.1131831 0
-1.9801879 6.7620888 0
8.8225604 -4.7405204 0
2.7241434 3.8672035 0
2.4961601 5.2908287 0
-9.6532364 0.380194 0
3.4480701 -4.7723404 0
0.66165701 0.79152623 0
11.386578 8.5701004 0
-6.8350545 10.617888 0
-0.51145031 3.4809606 0
10.333414 6.8447077 0
-5.5793983 1.8025569 0
-0.53165979 -3.2712141 0
5.0117166 -5.7204782 0
5.4597022 -18.155968 0
9.8715968 8.6086893 0
10.296494 -4.684581 0
5.3527801 7.7302693 0
3.6331694 -6.8604091 0
-6.0769865 6.761642 0
5.2448929 -10.308563 0
5.6637901 -5.2742643 0
12.133031 -9.1442782 0
-16.526817 0.35416297 0
14.398708 0.38468871 0
2.7440238 7.3828662 0
3.4854122 -5.5237147 0
0.32354974 6.8869357 0
9.2033832 -0.84703603 0
-3.6417407 5.4914141 0
7.6821422 2.3688857 0
14.006381 -5.7904406 0
-9.7579586 5.9537374 0
1.1102732 8.7500944 0