# vtk DataFile Version 4.0
hesp visualization file
ASCII
DATASET UNSTRUCTURED_GRID
POINTS 1250 double
30.144717 1.1243092 4
30.144724 2.2449611 4
30.144724 3.3673861 4
30.144724 4.4898482 4
30.144724 5.6123102 4
30.144724 6.7347723 4
30.144724 7.8572343 4
30.144724 8.9796964 4
30.144724 10.102158 4
30.144724 11.22462 4
30.144724 12.347083 4
30.144724 13.469545 4
30.144724 14.592007 4
30.144724 15.714469 4
30.144724 16.836931 4
30.144724 17.959393 4
30.144724 19.081855 4
30.144724 20.204317 4
30.144724 21.326779 4
30.144724 22.449241 4
30.144724 23.571703 4
30.144724 24.694165 4
30.144724 25.816627 4
30.144724 26.939052 4
30.144717 28.059704 4
31.181936 1.1204992 4
31.181914 2.2448684 4
31.181914 3.3673862 4
31.181914 4.4898482 4
31.181914 5.6123102 4
31.181914 6.7347723 4
31.181914 7.8572343 4
31.181914 8.9796964 4
31.181914 10.102158 4
31.181914 11.22462 4
31.181914 12.347083 4
31.181914 13.469545 4
31.181914 14.592007 4
31.181914 15.714469 4
31.181914 16.836931 4
31.181914 17.959393 4
31.181914 19.081855 4
31.181914 20.204317 4
31.181914 21.326779 4
31.181914 22.449241 4
31.181914 23.571703 4
31.181914 24.694165 4
31.181914 25.816627 4
31.181914 26.939145 4
31.181936 28.063514 4
31.471303 1.1244448 4
31.47133 2.2449672 4
31.471331 3.3673861 4
31.471331 4.4898482 4
31.471331 5.6123102 4
31.471331 6.7347723 4
31.471331 7.8572343 4
31.471331 8.9796964 4
31.471331 10.102158 4
31.471331 11.22462 4
31.471331 12.347083 4
31.471331 13.469545 4
31.471331 14.592007 4
31.471331 15.714469 4
31.471331 16.836931 4
31.471331 17.959393 4
31.471331 19.081855 4
31.471331 20.204317 4
31.471331 21.326779 4
31.471331 22.449241 4
31.471331 23.571703 4
31.471331 24.694165 4
31.471331 25.816627 4
31.47133 26.939046 4
31.471303 28.059568 4
32.508529 1.1221282 4
32.508527 2.2449082 4
32.508527 3.3673861 4
32.508527 4.4898482 4
32.508527 5.6123102 4
32.508527 6.7347723 4
32.508527 7.8572343 4
32.508527 8.9796964 4
32.508527 10.102158 4
32.508527 11.22462 4
32.508527 12.347083 4
32.508527 13.469545 4
32.508527 14.592007 4
32.508527 15.714469 4
32.508527 16.836931 4
32.508527 17.959393 4
32.508527 19.081855 4
32.508527 20.204317 4
32.508527 21.326779 4
32.508527 22.449241 4
32.508527 23.571703 4
32.508527 24.694165 4
32.508527 25.816627 4
32.508527 26.939105 4
32.508529 28.061885 4
32.797654 1.1230231 4
32.797652 2.2449314 4
32.797652 3.3673861 4
32.797652 4.4898482 4
32.797652 5.6123102 4
32.797652 6.7347723 4
32.797652 7.8572343 4
32.797652 8.9796964 4
32.797652 10.102158 4
32.797652 11.22462 4
32.797652 12.347083 4
32.797652 13.469545 4
32.797652 14.592007 4
32.797652 15.714469 4
32.797652 16.836931 4
32.797652 17.959393 4
32.797652 19.081855 4
32.797652 20.204317 4
32.797652 21.326779 4
32.797652 22.449241 4
32.797652 23.571703 4
32.797652 24.694165 4
32.797652 25.816627 4
32.797652 26.939082 4
32.797654 28.06099 4
33.834772 1.1228332 4
33.834772 2.2449265 4
33.834772 3.3673861 4
33.834772 4.4898482 4
33.834772 5.6123102 4
33.834772 6.7347723 4
33.834772 7.8572343 4
33.834772 8.9796964 4
33.834772 10.102158 4
33.834772 11.22462 4
33.834772 12.347083 4
33.834772 13.469545 4
33.834772 14.592007 4
33.834772 15.714469 4
33.834772 16.836931 4
33.834772 17.959393 4
33.834772 19.081855 4
33.834772 20.204317 4
33.834772 21.326779 4
33.834772 22.449241 4
33.834772 23.571703 4
33.834772 24.694165 4
33.834772 25.816627 4
33.834772 26.939087 4
33.834772 28.06118 4
34.957234 1.1228332 4
34.957234 2.2449265 4
34.957234 3.3673861 4
34.957234 4.4898482 4
34.957234 5.6123102 4
34.957234 6.7347723 4
34.957234 7.8572343 4
34.957234 8.9796964 4
34.957234 10.102158 4
34.957234 11.22462 4
34.957234 12.347083 4
34.957234 13.469545 4
34.957234 14.592007 4
34.957234 15.714469 4
34.957234 16.836931 4
34.957234 17.959393 4
34.957234 19.081855 4
34.957234 20.204317 4
34.957234 21.326779 4
34.957234 22.449241 4
34.957234 23.571703 4
34.957234 24.694165 4
34.957234 25.816627 4
34.957234 26.939087 4
34.957234 28.06118 4
36.079696 1.1228332 4
36.079696 2.2449265 4
36.079696 3.3673861 4
36.079696 4.4898482 4
36.079696 5.6123102 4
36.079696 6.7347723 4
36.079696 7.8572343 4
36.079696 8.9796964 4
36.079696 10.102158 4
36.079696 11.22462 4
36.079696 12.347083 4
36.079696 13.469545 4
36.079696 14.592007 4
36.079696 15.714469 4
36.079696 16.836931 4
36.079696 17.959393 4
36.079696 19.081855 4
36.079696 20.204317 4
36.079696 21.326779 4
36.079696 22.449241 4
36.079696 23.571703 4
36.079696 24.694165 4
36.079696 25.816627 4
36.079696 26.939087 4
36.079696 28.06118 4
37.202158 1.1228332 4
37.202158 2.2449265 4
37.202158 3.3673861 4
37.202158 4.4898482 4
37.202158 5.6123102 4
37.202158 6.7347723 4
37.202158 7.8572343 4
37.202158 8.9796964 4
37.202158 10.102158 4
37.202158 11.22462 4
37.202158 12.347083 4
37.202158 13.469545 4
37.202158 14.592007 4
37.202158 15.714469 4
37.202158 16.836931 4
37.202158 17.959393 4
37.202158 19.081855 4
37.202158 20.204317 4
37.202158 21.326779 4
37.202158 22.449241 4
37.202158 23.571703 4
37.202158 24.694165 4
37.202158 25.816627 4
37.202158 26.939087 4
37.202158 28.06118 4
38.32462 1.1228332 4
38.32462 2.2449265 4
38.32462 3.3673861 4
38.32462 4.4898482 4
38.32462 5.6123102 4
38.32462 6.7347723 4
38.32462 7.8572343 4
38.32462 8.9796964 4
38.32462 10.102158 4
38.32462 11.22462 4
38.32462 12.347083 4
38.32462 13.469545 4
38.32462 14.592007 4
38.32462 15.714469 4
38.32462 16.836931 4
38.32462 17.959393 4
38.32462 19.081855 4
38.32462 20.204317 4
38.32462 21.326779 4
38.32462 22.449241 4
38.32462 23.571703 4
38.32462 24.694165 4
38.32462 25.816627 4
38.32462 26.939087 4
38.32462 28.06118 4
39.447083 1.1228332 4
39.447083 2.2449265 4
39.447083 3.3673861 4
39.447083 4.4898482 4
39.447083 5.6123102 4
39.447083 6.7347723 4
39.447083 7.8572343 4
39.447083 8.9796964 4
39.447083 10.102158 4
39.447083 11.22462 4
39.447083 12.347083 4
39.447083 13.469545 4
39.447083 14.592007 4
39.447083 15.714469 4
39.447083 16.836931 4
39.447083 17.959393 4
39.447083 19.081855 4
39.447083 20.204317 4
39.447083 21.326779 4
39.447083 22.449241 4
39.447083 23.571703 4
39.447083 24.694165 4
39.447083 25.816627 4
39.447083 26.939087 4
39.447083 28.06118 4
40.569545 1.1228332 4
40.569545 2.2449265 4
40.569545 3.3673861 4
40.569545 4.4898482 4
40.569545 5.6123102 4
40.569545 6.7347723 4
40.569545 7.8572343 4
40.569545 8.9796964 4
40.569545 10.102158 4
40.569545 11.22462 4
40.569545 12.347083 4
40.569545 13.469545 4
40.569545 14.592007 4
40.569545 15.714469 4
40.569545 16.836931 4
40.569545 17.959393 4
40.569545 19.081855 4
40.569545 20.204317 4
40.569545 21.326779 4
40.569545 22.449241 4
40.569545 23.571703 4
40.569545 24.694165 4
40.569545 25.816627 4
40.569545 26.939087 4
40.569545 28.06118 4
41.692007 1.1228332 4
41.692007 2.2449265 4
41.692007 3.3673861 4
41.692007 4.4898482 4
41.692007 5.6123102 4
41.692007 6.7347723 4
41.692007 7.8572343 4
41.692007 8.9796964 4
41.692007 10.102158 4
41.692007 11.22462 4
41.692007 12.347083 4
41.692007 13.469545 4
41.692007 14.592007 4
41.692007 15.714469 4
41.692007 16.836931 4
41.692007 17.959393 4
41.692007 19.081855 4
41.692007 20.204317 4
41.692007 21.326779 4
41.692007 22.449241 4
41.692007 23.571703 4
41.692007 24.694165 4
41.692007 25.816627 4
41.692007 26.939087 4
41.692007 28.06118 4
42.814469 1.1228332 4
42.814469 2.2449265 4
42.814469 3.3673861 4
42.814469 4.4898482 4
42.814469 5.6123102 4
42.814469 6.7347723 4
42.814469 7.8572343 4
42.814469 8.9796964 4
42.814469 10.102158 4
42.814469 11.22462 4
42.814469 12.347083 4
42.814469 13.469545 4
42.814469 14.592007 4
42.814469 15.714469 4
42.814469 16.836931 4
42.814469 17.959393 4
42.814469 19.081855 4
42.814469 20.204317 4
42.814469 21.326779 4
42.814469 22.449241 4
42.814469 23.571703 4
42.814469 24.694165 4
42.814469 25.816627 4
42.814469 26.939087 4
42.814469 28.06118 4
43.936931 1.1228332 4
43.936931 2.2449265 4
43.936931 3.3673861 4
43.936931 4.4898482 4
43.936931 5.6123102 4
43.936931 6.7347723 4
43.936931 7.8572343 4
43.936931 8.9796964 4
43.936931 10.102158 4
43.936931 11.22462 4
43.936931 12.347083 4
43.936931 13.469545 4
43.936931 14.592007 4
43.936931 15.714469 4
43.936931 16.836931 4
43.936931 17.959393 4
43.936931 19.081855 4
43.936931 20.204317 4
43.936931 21.326779 4
43.936931 22.449241 4
43.936931 23.571703 4
43.936931 24.694165 4
43.936931 25.816627 4
43.936931 26.939087 4
43.936931 28.06118 4
45.059393 1.1228332 4
45.059393 2.2449265 4
45.059393 3.3673861 4
45.059393 4.4898482 4
45.059393 5.6123102 4
45.059393 6.7347723 4
45.059393 7.8572343 4
45.059393 8.9796964 4
45.059393 10.102158 4
45.059393 11.22462 4
45.059393 12.347083 4
45.059393 13.469545 4
45.059393 14.592007 4
45.059393 15.714469 4
45.059393 16.836931 4
45.059393 17.959393 4
45.059393 19.081855 4
45.059393 20.204317 4
45.059393 21.326779 4
45.059393 22.449241 4
45.059393 23.571703 4
45.059393 24.694165 4
45.059393 25.816627 4
45.059393 26.939087 4
45.059393 28.06118 4
46.181855 1.1228332 4
46.181855 2.2449265 4
46.181855 3.3673861 4
46.181855 4.4898482 4
46.181855 5.6123102 4
46.181855 6.7347723 4
46.181855 7.8572343 4
46.181855 8.9796964 4
46.181855 10.102158 4
46.181855 11.22462 4
46.181855 12.347083 4
46.181855 13.469545 4
46.181855 14.592007 4
46.181855 15.714469 4
46.181855 16.836931 4
46.181855 17.959393 4
46.181855 19.081855 4
46.181855 20.204317 4
46.181855 21.326779 4
46.181855 22.449241 4
46.181855 23.571703 4
46.181855 24.694165 4
46.181855 25.816627 4
46.181855 26.939087 4
46.181855 28.06118 4
47.304317 1.1228332 4
47.304317 2.2449265 4
47.304317 3.3673861 4
47.304317 4.4898482 4
47.304317 5.6123102 4
47.304317 6.7347723 4
47.304317 7.8572343 4
47.304317 8.9796964 4
47.304317 10.102158 4
47.304317 11.22462 4
47.304317 12.347083 4
47.304317 13.469545 4
47.304317 14.592007 4
47.304317 15.714469 4
47.304317 16.836931 4
47.304317 17.959393 4
47.304317 19.081855 4
47.304317 20.204317 4
47.304317 21.326779 4
47.304317 22.449241 4
47.304317 23.571703 4
47.304317 24.694165 4
47.304317 25.816627 4
47.304317 26.939087 4
47.304317 28.06118 4
48.426779 1.1228332 4
48.426779 2.2449265 4
[...]
POINT_DATA 1250
SCALARS m double
LOOKUP_TABLE default
1
1
1
1
1
1
1
1
1
1
1
1
1
1
1
1
1
1
1
1
1
1
1
1
1
1
1
1
1
1
1
1
1
1
1
1
1
1
1
1
1
1
1
1
1
1
1
1
1
1
1
1
1
1
1
1
1
1
1
1
1
1
1
1
1
1
1
1
1
1
1
1
1
1
1
1
1
1
1
1
1
1
1
1
1
1
1
1
1
1
1
1
1
1
1
1
1
1
1
1
1
1
1
1
1
1
1
1
1
1
1
1
1
1
1
1
1
1
1
1
1
1
1
1
1
1
1
1
1
1
1
1
1
1
1
1
1
1
1
1
1
1
1
1
1
1
1
1
1
1
1
1
1
1
1
1
1
1
1
1
1
1
1
1
1
1
1
1
1
1
1
1
1
1
1
1
1
1
1
1
1
1
1
1
1
1
1
1
1
1
1
1
1
1
1
1
1
1
1
1
1
1
1
1
1
1
1
1
1
1
1
1
1
1
1
1
1
1
1
1
1
1
1
1
1
1
1
1
1
1
1
1
1
1
1
1
1
1
1
1
1
1
1
1
1
1
1
1
1
1
1
1
1
1
1
1
1
1
1
1
1
1
1
1
1
1
1
1
1
1
1
1
1
1
1
1
1
1
1
1
1
1
1
1
1
1
1
1
1
1
1
1
1
1
1
1
1
1
1
1
1
1
1
1
1
1
1
1
1
1
1
1
1
1
1
1
1
1
1
1
1
1
1
1
1
1
1
1
1
1
1
1
1
1
1
1
1
1
1
1
1
1
1
1
1
1
1
1
1
1
1
1
1
1
1
1
1
1
1
1
1
1
1
1
1
1
1
1
1
1
1
1
1
1
1
1
1
1
1
1
1
1
1
1
1
1
1
1
1
1
1
1
1
1
1
1
1
1
1
1
1
1
1
1
1
1
1
1
1
1
1
1
1
1
1
1
1
1
1
1
1
1
1
1
1
1
1
1
1
1
1
1
1
1
1
1
1
1
1
1
1
1
1
1
1
1
1
1
1
1
1
1
1
1
1
1
1
1
1
1
1
1
1
1
1
1
1
1
1
1
1
1
1
1
1
1
1
1
1
1
1
1
1
1
1
1
1
1
1
1
1
1
1
1
1
1
1
1
1
1
1
1
1
1
1
1
1
1
1
1
1
1
1
1
1
1
1
1
1
1
1
1
1
1
1
1
1
1
1
1
1
1
1
1
1
1
1
1
1
1
1
1
1
1
1
1
1
1
1
1
1
1
1
1
1
1
1
1
1
1
1
1
1
1
1
1
1
1
1
1
1
1
1
1
1
1
1
1
1
1
1
1
1
1
1
1
1
1
1
1
1
1
1
1
1
1
1
1
1
1
1
1
1
1
1
1
1
1
1
1
1
1
1
1
1
1
1
1
1
1
1
1
1
1
1
1
1
1
1
1
1
1
1
1
1
1
1
1
1
1
1
1
1
1
1
1
1
1
1
1
1
1
1
1
1
1
1
1
1
1
1
1
1
1
1
1
1
1
1
1
1
1
1
1
1
1
1
1
1
1
1
1
1
1
1
1
1
1
1
1
1
1
1
1
1
1
1
1
1
1
1
1
1
1
1
1
1
1
1
1
1
1
1
1
1
1
1
1
1
1
1
1
1
1
1
1
1
1
1
1
1
1
1
1
1
1
1
1
1
1
1
1
1
1
1
1
1
1
1
1
1
1
1
1
1
1
1
1
1
1
1
1
1
1
1
1
1
1
1
1
1
1
1
1
1
1
1
1
1
1
1
1
1
1
1
1
1
1
1
1
1
1
1
1
1
1
1
1
1
1
1
1
1
1
1
1
1
1
1
1
1
1
1
1
1
1
1
1
1
1
1
1
1
1
1
1
1
1
1
1
1
1
1
1
1
1
1
1
1
1
1
1
1
1
1
1
1
1
1
1
1
1
1
1
1
1
1
1
1
1
1
1
1
1
1
1
1
1
1
1
1
1
1
1
1
1
1
1
1
1
1
1
1
1
1
1
1
1
1
1
1
1
1
1
1
1
1
1
1
1
1
1
1
1
1
1
1
1
1
1
1
1
1
1
1
1
1
1
1
1
1
1
1
1
1
1
1
1
1
1
1
1
1
1
1
1
1
1
1
1
1
1
1
1
1
1
1
1
1
1
1
1
1
1
1
1
1
1
1
1
1
1
1
1
1
1
1
1
1
1
1
1
1
1
1
1
1
1
1
1
1
1
1
1
1
1
1
1
1
1
1
1
1
1
1
1
1
1
1
1
1
1
1
1
1
1
1
1
1
1
1
1
1
1
1
1
1
1
1
1
1
1
1
1
1
1
1
1
1
1
1
1
1
1
1
1
1
1
1
1
1
1
1
1
1
1
1
1
1
1
1
1
1
1
1
1
1
1
1
1
1
1
1
1
1
1
1
1
1
1
1
1
1
1
1
1
1
1
1
1
1
1
1
1
1
1
1
1
1
1
1
1
1
1
1
1
1
1
1
1
1
1
1
1
1
1
1
1
1
1
1
1
1
1
1
1
1
1
1
1
1
1
1
1
1
1
1
1
1
1
1
1
1
1
1
1
1
1
1
1
1
1
1
1
1
1
1
1
1
1
1
1
1
1
1
1
1
1
1
1
1
1
1
1
1
1
1
1
1
1
1
1
1
1
1
1
1
1
1
1
1
1
1
1
1
1
1
1
1
1
1
1
1
1
1
1
1
1
1
1
1
1
1
1
1
1
1
1
1
1
1
1
1
1
1
1
1
1
1
1
1
1
1
1
1
1
1
1
1
1
1
1
1
1
1
1
1
1
1
1
1
1
1
1
1
1
1
1
1
1
VECTORS v double
9.9287886 0.029592418 0
9.9289976 0.00065410405 0
9.9289986 -2.4491087e-07 0
9.9289986 -8.83418e-10 0
9.9289986 -2.5736058e-10 0
9.9289986 2.0789326e-13 0
9.9289986 -1.034933e-13 0
9.9289986 -4.1495198e-13 0
9.9289986 2.3853548e-15 0
9.9289986 -2.0902719e-13 0
9.9289986 -4.1397506e-13 0
9.9289986 -6.1886795e-13 0
9.9289986 6.8154534e-12 0
9.9289986 6.2087766e-13 0
9.9289986 4.1398419e-13 0
9.9289986 4.1606837e-13 0
9.9289986 -2.1223482e-15 0
9.9289986 -1.0410652e-17 0
9.9289986 8.0797985e-17 0
9.9289986 -4.1235988e-13 0
9.9289986 -6.3143308e-13 0
9.9289986 8.7984482e-10 0
9.9289986 2.4508827e-07 0
9.9289976 -0.00065410384 0
9.9287886 -0.029592418 0
-9.9251475 -0.22672935 0
-9.9278674 -0.0057114931 0
-9.9278708 1.3159993e-06 0
-9.9278708 4.2487072e-09 0
-9.9278708 8.6152136e-11 0
-9.9278708 1.2885385e-13 0
-9.9278708 -6.4719624e-14 0
-9.9278708 -2.5981296e-13 0
-9.9278708 2.2494489e-15 0
-9.9278708 -1.3136798e-13 0
-9.9278708 -2.5889127e-13 0
-9.9278708 -3.8641087e-13 0
-9.9278708 -5.1964779e-13 0
-9.9278708 3.8820605e-13 0
-9.9278708 2.5889884e-13 0
-9.9278708 2.6086422e-13 0
-9.9278708 -2.0019211e-15 0
-9.9278708 -9.4109177e-18 0
-9.9278708 7.6606012e-17 0
-9.9278708 -2.5709182e-13 0
-9.9278708 -2.9445793e-13 0
-9.9278708 -4.2656569e-09 0
-9.9278708 -1.3172933e-06 0
-9.9278674 0.0057114918 0
-9.9251475 0.22672935 0
9.9262901 0.21807901 0
9.9290431 0.0054155959 0
9.9290463 -1.264172e-06 0
9.9290464 -3.9240302e-09 0
9.9290464 -6.9889651e-11 0
9.9290464 1.5140739e-13 0
9.9290464 -7.5936131e-14 0
9.9290464 -3.0460949e-13 0
9.9290464 2.102919e-15 0
9.9290464 -1.5366987e-13 0
9.9290464 -3.0374696e-13 0
9.9290464 -4.5382063e-13 0
9.9290464 -6.0923441e-13 0
9.9290464 4.5549783e-13 0
9.9290464 3.0375373e-13 0
9.9290464 3.0559044e-13 0
9.9290464 -1.8727416e-15 0
9.9290464 -8.2623566e-18 0
9.9290464 7.2269395e-17 0
9.9290464 -3.0198812e-13 0
9.9290464 -3.3832168e-13 0
9.9290464 3.9420529e-09 0
9.9290463 1.2653954e-06 0
9.9290431 -0.0054155947 0
9.9262901 -0.21807901 0
-9.9240573 -0.053319642 0
-9.9242291 -0.0014329431 0
-9.9242308 1.9700965e-07 0
-9.9242308 5.801959e-10 0
-9.9242308 4.286402e-13 0
-9.9242308 1.2820277e-13 0
-9.9242308 -6.4072579e-14 0
-9.9242308 -2.5710782e-13 0
-9.9242308 1.9564955e-15 0
-9.9242308 -1.2982386e-13 0
-9.9242308 -2.5630508e-13 0
-9.9242308 -3.8278326e-13 0
-9.9242308 -5.1422822e-13 0
-9.9242308 3.8434327e-13 0
-9.9242308 2.563111e-13 0
-9.9242308 2.5801986e-13 0
-9.9242308 -1.742512e-15 0
-9.9242308 -7.1204104e-18 0
-9.9242308 6.6806027e-17 0
-9.9242308 -2.54734e-13 0
-9.9242308 -3.0159843e-13 0
-9.9242308 -5.9002711e-10 0
-9.9242308 -1.9734985e-07 0
-9.9242291 0.0014329427 0
-9.9240573 0.053319642 0
9.9250397 0.048348954 0
9.9251423 0.0012002233 0
9.9251441 -2.0339188e-07 0
9.9251441 -5.0471885e-10 0
9.9251441 3.1277972e-14 0
9.9251441 2.9699817e-15 0
9.9251441 -1.4802998e-15 0
9.9251441 -6.681329e-15 0
9.9251441 1.8120623e-15 0
9.9251441 -4.5157904e-15 0
9.9251441 -5.9371093e-15 0
9.9251441 -7.3551623e-15 0
9.9251441 -1.3372449e-14 0
9.9251441 8.8002069e-15 0
9.9251441 5.9423333e-15 0
9.9251441 7.5243367e-15 0
9.9251441 -1.6147724e-15 0
9.9251441 -5.9704926e-18 0
9.9251441 6.2295817e-17 0
9.9251441 -4.4297453e-15 0
9.9251441 -2.9375735e-14 0
9.9251441 5.1277033e-10 0
9.9251441 2.0366916e-07 0
9.9251423 -0.001200223 0
9.9250397 -0.048348954 0
-10.000053 0.002565287 0
-10.000059 1.5938911e-05 0
-10.000059 -1.9157574e-08 0
-10.000059 -4.2643002e-11 0
-10.000059 2.542433e-14 0
-10.000059 2.5229391e-17 0
-10.000059 -2.1741317e-18 0
-10.000059 -7.3210983e-16 0
-10.000059 1.7209687e-15 0
-10.000059 -1.4812417e-15 0
-10.000059 -2.4859248e-17 0
-10.000059 1.4350477e-15 0
-10.000059 -1.4726677e-15 0
-10.000059 -6.2055523e-17 0
-10.000059 2.9582304e-17 0
-10.000059 1.5316734e-15 0
-10.000059 -1.5338826e-15 0
-10.000059 -5.3217304e-18 0
-10.000059 5.94433e-17 0
-10.000059 1.3962251e-15 0
-10.000059 -2.648444e-14 0
-10.000059 4.2642581e-11 0
-10.000059 1.9157574e-08 0
-10.000059 -1.5938911e-05 0
-10.000053 -0.002565287 0
-10 0.002560534 0
-10.000001 1.5845823e-05 0
-10.000001 -1.9089344e-08 0
-10.000001 -4.141421e-11 0
-10.000001 2.5018275e-14 0
-10.000001 2.4366689e-17 0
-10.000001 -2.1961765e-18 0
-10.000001 -7.3155193e-16 0
-10.000001 1.7200263e-15 0
-10.000001 -1.480586e-15 0
-10.000001 -2.4865098e-17 0
-10.000001 1.4341342e-15 0
-10.000001 -1.472078e-15 0
-10.000001 -6.1833743e-17 0
-10.000001 2.969587e-17 0
-10.000001 1.5308578e-15 0
-10.000001 -1.5329571e-15 0
-10.000001 -5.2913682e-18 0
-10.000001 5.9329473e-17 0
-10.000001 1.3962476e-15 0
-10.000001 -2.6077764e-14 0
-10.000001 4.1413788e-11 0
-10.000001 1.9089343e-08 0
-10.000001 -1.5845823e-05 0
-10 -0.002560534 0
-10 0.0025604703 0
-10 1.5845844e-05 0
-10 -1.9089177e-08 0
-10 -4.1414267e-11 0
-10 2.5017967e-14 0
-10 2.4258279e-17 0
-10 -2.181256e-18 0
-10 -7.3140101e-16 0
-10 1.7200191e-15 0
-10 -1.4805582e-15 0
-10 -2.4663676e-17 0
-10 1.4343687e-15 0
-10 -1.4719047e-15 0
-10 -6.2007036e-17 0
-10 2.9371756e-17 0
-10 1.530753e-15 0
-10 -1.5328888e-15 0
-10 -5.2908798e-18 0
-10 5.925071e-17 0
-10 1.3964166e-15 0
-10 -2.6077389e-14 0
-10 4.1413846e-11 0
-10 1.9089176e-08 0
-10 -1.5845844e-05 0
-10 -0.0025604703 0
-10 0.0025604703 0
-10 1.5845844e-05 0
-10 -1.9089177e-08 0
-10 -4.1414267e-11 0
-10 2.5018163e-14 0
-10 2.4266488e-17 0
-10 -2.1420504e-18 0
-10 -7.316496e-16 0
-10 1.7199426e-15 0
-10 -1.4804681e-15 0
-10 -2.4827962e-17 0
-10 1.4340468e-15 0
-10 -1.4718764e-15 0
-10 -6.1927727e-17 0
-10 2.9436127e-17 0
-10 1.5308049e-15 0
-10 -1.5328247e-15 0
-10 -5.2922211e-18 0
-10 5.924442e-17 0
-10 1.3963501e-15 0
-10 -2.6077517e-14 0
-10 4.1413846e-11 0
-10 1.9089176e-08 0
-10 -1.5845844e-05 0
-10 -0.0025604703 0
-10 0.0025604703 0
-10 1.5845844e-05 0
-10 -1.9089177e-08 0
-10 -4.1414267e-11 0
-10 2.5017945e-14 0
-10 2.425415e-17 0
-10 -2.1865472e-18 0
-10 -7.3178188e-16 0
-10 1.7200156e-15 0
-10 -1.4802033e-15 0
-10 -2.4788261e-17 0
-10 1.4341101e-15 0
-10 -1.471715e-15 0
-10 -6.1968543e-17 0
-10 2.9386761e-17 0
-10 1.5307771e-15 0
-10 -1.5328664e-15 0
-10 -5.290915e-18 0
-10 5.9224867e-17 0
-10 1.3964238e-15 0
-10 -2.6077295e-14 0
-10 4.1413845e-11 0
-10 1.9089176e-08 0
-10 -1.5845844e-05 0
-10 -0.0025604703 0
-10 0.0025604703 0
-10 1.5845844e-05 0
-10 -1.9089177e-08 0
-10 -4.1414267e-11 0
-10 2.5017948e-14 0
-10 2.4323439e-17 0
-10 -2.1753565e-18 0
-10 -7.3143212e-16 0
-10 1.7198692e-15 0
-10 -1.4806269e-15 0
-10 -2.4912751e-17 0
-10 1.4341718e-15 0
-10 -1.471839e-15 0
-10 -6.2008524e-17 0
-10 2.9561674e-17 0
-10 1.5307804e-15 0
-10 -1.5328757e-15 0
-10 -5.2980742e-18 0
-10 5.925803e-17 0
-10 1.3963889e-15 0
-10 -2.6077458e-14 0
-10 4.1413845e-11 0
-10 1.9089176e-08 0
-10 -1.5845844e-05 0
-10 -0.0025604703 0
-10 0.0025604703 0
-10 1.5845844e-05 0
-10 -1.9089177e-08 0
-10 -4.1414267e-11 0
-10 2.5018051e-14 0
-10 2.4325572e-17 0
-10 -2.1400249e-18 0
-10 -7.3163805e-16 0
-10 1.7199392e-15 0
-10 -1.4804644e-15 0
-10 -2.4829114e-17 0
-10 1.4340479e-15 0
-10 -1.4717323e-15 0
-10 -6.1948301e-17 0
-10 2.9681246e-17 0
-10 1.5307951e-15 0
-10 -1.5328222e-15 0
-10 -5.2922387e-18 0
-10 5.924231e-17 0
-10 1.3963597e-15 0
-10 -2.6077512e-14 0
-10 4.1413846e-11 0
-10 1.9089176e-08 0
-10 -1.5845844e-05 0
-10 -0.0025604703 0
-10 0.0025604703 0
-10 1.5845844e-05 0
-10 -1.9089177e-08 0
-10 -4.1414267e-11 0
-10 2.5018044e-14 0
-10 2.42523e-17 0
-10 -2.1899671e-18 0
-10 -7.3180566e-16 0
-10 1.7200226e-15 0
-10 -1.4802107e-15 0
-10 -2.4802706e-17 0
-10 1.4340906e-15 0
-10 -1.4718896e-15 0
-10 -6.192711e-17 0
-10 2.9400051e-17 0
-10 1.5307962e-15 0
-10 -1.5328702e-15 0
-10 -5.2908974e-18 0
-10 5.9228681e-17 0
-10 1.3964045e-15 0
-10 -2.6077654e-14 0
-10 4.1413846e-11 0
-10 1.9089176e-08 0
-10 -1.5845844e-05 0
-10 -0.0025604703 0
-10 0.0025604703 0
-10 1.5845844e-05 0
-10 -1.9089177e-08 0
-10 -4.1414267e-11 0
-10 2.5018073e-14 0
-10 2.4257528e-17 0
-10 -2.1899791e-18 0
-10 -7.314284e-16 0
-10 1.7200226e-15 0
-10 -1.480588e-15 0
-10 -2.4802754e-17 0
-10 1.4342163e-15 0
-10 -1.4718897e-15 0
-10 -6.1927038e-17 0
-10 2.9400099e-17 0
-10 1.5307963e-15 0
-10 -1.5328702e-15 0
-10 -5.2908974e-18 0
-10 5.9228681e-17 0
-10 1.3964046e-15 0
-10 -2.6077581e-14 0
-10 4.1413846e-11 0
-10 1.9089176e-08 0
-10 -1.5845844e-05 0
-10 -0.0025604703 0
-10 0.0025604703 0
-10 1.5845844e-05 0
-10 -1.9089177e-08 0
-10 -4.1414267e-11 0
-10 2.5018091e-14 0
-10 2.4331787e-17 0
-10 -2.1789212e-18 0
-10 -7.3145515e-16 0
-10 1.7198761e-15 0
-10 -1.4806354e-15 0
-10 -2.4927318e-17 0
-10 1.4341514e-15 0
-10 -1.4720149e-15 0
-10 -6.1966751e-17 0
-10 2.9575419e-17 0
-10 1.5307997e-15 0
-10 -1.5328795e-15 0
-10 -5.2980776e-18 0
-10 5.9261911e-17 0
-10 1.3963696e-15 0
-10 -2.6077537e-14 0
-10 4.1413846e-11 0
-10 1.9089176e-08 0
-10 -1.5845844e-05 0
-10 -0.0025604703 0
-10 0.0025604703 0
-10 1.5845844e-05 0
-10 -1.9089177e-08 0
-10 -4.1414267e-11 0
-10 2.5018063e-14 0
-10 2.4322867e-17 0
-10 -2.1403157e-18 0
-10 -7.3163833e-16 0
-10 1.7199391e-15 0
-10 -1.4804637e-15 0
-10 -2.4829697e-17 0
-10 1.4340485e-15 0
-10 -1.4717316e-15 0
-10 -6.1948544e-17 0
-10 2.9680723e-17 0
-10 1.5307954e-15 0
-10 -1.5328229e-15 0
-10 -5.2922211e-18 0
-10 5.9242685e-17 0
-10 1.3963596e-15 0
-10 -2.6077572e-14 0
-10 4.1413846e-11 0
-10 1.9089176e-08 0
-10 -1.5845844e-05 0
-10 -0.0025604703 0
-10 0.0025604703 0
-10 1.5845844e-05 0
-10 -1.9089177e-08 0
-10 -4.1414267e-11 0
-10 2.5017935e-14 0
-10 2.4254174e-17 0
-10 -2.1865592e-18 0
-10 -7.3178193e-16 0
-10 1.7200156e-15 0
-10 -1.4802033e-15 0
-10 -2.4788309e-17 0
-10 1.43411e-15 0
-10 -1.47184e-15 0
-10 -6.1968471e-17 0
-10 2.9386809e-17 0
-10 1.5307771e-15 0
-10 -1.5328664e-15 0
-10 -5.290915e-18 0
-10 5.9224867e-17 0
-10 1.3964238e-15 0
-10 -2.6077346e-14 0
-10 4.1413845e-11 0
-10 1.9089176e-08 0
-10 -1.5845844e-05 0
-10 -0.0025604703 0
-10 0.0025604703 0
-10 1.5845844e-05 0
-10 -1.9089177e-08 0
-10 -4.1414267e-11 0
-10 2.5018044e-14 0
-10 2.4267772e-17 0
-10 -2.1899055e-18 0
-10 -7.3142867e-16 0
-10 1.7200225e-15 0
-10 -1.4805876e-15 0
-10 -2.4803225e-17 0
-10 1.434217e-15 0
-10 -1.4718889e-15 0
-10 -6.1927383e-17 0
-10 2.9399416e-17 0
-10 1.5307963e-15 0
-10 -1.5328706e-15 0
-10 -5.2908798e-18 0
-10 5.9229026e-17 0
-10 1.3964046e-15 0
-10 -2.607742e-14 0
-10 4.1413846e-11 0
-10 1.9089176e-08 0
-10 -1.5845844e-05 0
-10 -0.0025604703 0
-10 0.0025604703 0
-10 1.5845844e-05 0
-10 -1.9089177e-08 0
-10 -4.1414267e-11 0
-10 2.5018047e-14 0
-10 2.4264559e-17 0
-10 -2.1900166e-18 0
-10 -7.3142799e-16 0
-10 1.7200226e-15 0
-10 -1.4805884e-15 0
-10 -2.4802139e-17 0
-10 1.4342159e-15 0
-10 -1.4720151e-15 0
-10 -6.192691e-17 0
-10 2.9400639e-17 0
-10 1.5307961e-15 0
-10 -1.5328699e-15 0
-10 -5.290915e-18 0
-10 5.9228337e-17 0
-10 1.3964047e-15 0
-10 -2.607742e-14 0
-10 4.1413846e-11 0
-10 1.9089176e-08 0
-10 -1.5845844e-05 0
-10 -0.0025604703 0
-10 0.0025604703 0
-10 1.5845844e-05 0
-10 -1.9089177e-08 0
-10 -4.1414267e-11 0
-10 2.5017901e-14 0
-10 2.4359208e-17 0
-10 -2.1439852e-18 0
-10 -7.315977e-16 0
-10 1.7199933e-15 0
-10 -1.4805698e-15 0
-10 -2.4898421e-17 0
-10 1.4341395e-15 0
-10 -1.4719134e-15 0
-10 -6.2026956e-17 0
-10 2.9540249e-17 0
-10 1.5306914e-15 0
-10 -1.5327945e-15 0
-10 -5.2994155e-18 0
-10 5.9243454e-17 0
-10 1.3962478e-15 0
-10 -2.6077423e-14 0
-10 4.1413846e-11 0
-10 1.9089176e-08 0
-10 -1.5845844e-05 0
-10 -0.0025604703 0
-10 0.0025604703 0
-10 1.5845844e-05 0
-10 -1.9089177e-08 0
-10 -4.1414267e-11 0
-10 2.5018358e-14 0
-10 2.4469526e-17 0
-10 -2.2116633e-18 0
-10 -7.3203382e-16 0
-10 1.7202996e-15 0
-10 -1.4806776e-15 0
-10 -2.488734e-17 0
-10 1.4342071e-15 0
-10 -1.4725303e-15 0
-10 -6.1291262e-17 0
-10 2.9601874e-17 0
-10 1.5309034e-15 0
-10 -1.5329403e-15 0
-10 -5.2928351e-18 0
-10 5.9335275e-17 0
-10 1.395742e-15 0
-10 -2.6077582e-14 0
-10 4.1413846e-11 0
-10 1.9089176e-08 0
-10 -1.5845844e-05 0
-10 -0.0025604703 0
-10 0.0025604703 0
-10 1.5845844e-05 0
-10 -1.9089177e-08 0
-10 -4.1414265e-11 0
-10 2.5018193e-14 0
-10 2.4418892e-17 0
-10 -2.1895395e-18 0
-10 -7.3168273e-16 0
-10 1.7200598e-15 0
-10 -1.4805873e-15 0
-10 -2.4868087e-17 0
-10 1.4341643e-15 0
-10 -1.4723008e-15 0
-10 -6.1755188e-17 0
-10 2.9571988e-17 0
-10 1.5309333e-15 0
-10 -1.5330708e-15 0
-10 -5.2943906e-18 0
-10 5.9497316e-17 0
-10 1.396019e-15 0
-10 -2.6077509e-14 0
-10 4.1413844e-11 0
-10 1.9089176e-08 0
-10 -1.5845844e-05 0
-10 -0.0025604703 0
-10 0.0025604707 0
-10 1.5845843e-05 0
-10 -1.9089255e-08 0
-10 -4.1414247e-11 0
-10 2.5017272e-14 0
-10 2.4272906e-17 0
-10 -2.0800479e-18 0
-10 -7.3105121e-16 0
-10 1.719872e-15 0
-10 -1.4803059e-15 0
-10 -2.4458644e-17 0
-10 1.4347202e-15 0
-10 -1.4708258e-15 0
-10 -6.3001296e-17 0
-10 2.9240865e-17 0
-10 1.5303253e-15 0
-10 -1.533026e-15 0
-10 -5.294436e-18 0
-10 5.9451767e-17 0
-10 1.3965284e-15 0
-10 -2.6076887e-14 0
-10 4.1413818e-11 0
-10 1.9089255e-08 0
-10 -1.5845843e-05 0
-10 -0.0025604707 0
-10.000016 0.0025605189 0
-10.000016 1.5851815e-05 0
-10.000016 -1.9091882e-08 0
-10.000016 -4.1425082e-11 0
-10.000016 2.5024266e-14 0
-10.000016 2.4779687e-17 0
-10.000016 -2.3655398e-18 0
-10.000016 -7.330381e-16 0
-10.000016 1.7199425e-15 0
-10.000016 -1.4809472e-15 0
-10.000016 -2.5909019e-17 0
-10.000016 1.4326631e-15 0
-10.000016 -1.4746881e-15 0
-10.000016 -6.0252021e-17 0
-10.000016 3.0783446e-17 0
-10.000016 1.5319083e-15 0
-10.000016 -1.5334104e-15 0
-10.000016 -5.2945189e-18 0
-10.000016 5.9821925e-17 0
-10.000016 1.3949543e-15 0
-10.000016 -2.6081043e-14 0
-10.000016 4.1424633e-11 0
-10.000016 1.9091882e-08 0
-10.000016 -1.5851815e-05 0
-10.000016 -0.0025605189 0
-10.002419 0.0024191511 0
-10.002561 1.5988189e-05 0
-10.00256 -1.8429584e-08 0
-10.00256 -4.1771605e-11 0
-10.00256 2.4288441e-14 0
-10.00256 2.5579069e-17 0
-10.00256 -2.5067143e-18 0
-10.00256 -7.1522709e-16 0
-10.00256 1.676233e-15 0
-10.00256 -1.4436597e-15 0
-10.00256 -2.6051957e-17 0
-10.00256 1.3953258e-15 0
-10.00256 -1.438942e-15 0
-10.00256 -5.7774132e-17 0
-10.00256 3.0989247e-17 0
-10.00256 1.4937289e-15 0
-10.00256 -1.4946868e-15 0
-10.00256 -5.2945078e-18 0
-10.00256 5.8658954e-17 0
-10.00256 1.3578267e-15 0
-10.00256 -2.530307e-14 0
-10.00256 4.1770885e-11 0
-10.00256 1.8429584e-08 0
-10.002561 -1.5988189e-05 0
-10.002419 -0.0024191511 0
-9.9287886 0.029592418 0
-9.9289976 0.000654104 0
-9.9289986 -2.4498065e-07 0
-9.9289986 -8.8731337e-10 0
-9.9289986 2.657727e-10 0
-9.9289986 2.9193003e-13 0
-9.9289986 -1.4662664e-13 0
-9.9289986 -5.8748569e-13 0
-9.9289986 2.3847488e-15 0
-9.9289986 -2.9529432e-13 0
-9.9289986 -5.8650922e-13 0
-9.9289986 -8.7761332e-13 0
-9.9289986 -8.4500602e-12 0
-9.9289986 8.7973948e-13 0
-9.9289986 5.8651856e-13 0
-9.9289986 5.8860243e-13 0
-9.9289986 -2.1222927e-15 0
-9.9289986 -1.0563256e-17 0
-9.9289986 8.0476282e-17 0
-9.9289986 -5.8489345e-13 0
-9.9289986 -8.0394164e-13 0
-9.9289986 8.9261925e-10 0
-9.9289986 2.4506543e-07 0
-9.9289976 -0.00065410396 0
-9.9287886 -0.029592418 0
9.9251475 -0.22672935 0
9.9278674 -0.005711493 0
9.9278708 1.3160004e-06 0
9.9278708 4.2157239e-09 0
9.9278708 -1.2066618e-10 0
9.9278708 2.6834561e-13 0
9.9278708 -1.3370741e-13 0
9.9278708 -5.3576244e-13 0
9.9278708 2.2497518e-15 0
9.9278708 -2.6934277e-13 0
9.9278708 -5.3484052e-13 0
9.9278708 -8.0031957e-13 0
9.9278708 -1.0342128e-12 0
9.9278708 8.0214785e-13 0
9.9278708 5.3484832e-13 0
9.9278708 5.3681386e-13 0
9.9278708 -2.0020187e-15 0
9.9278708 -9.4164017e-18 0
9.9278708 7.6580526e-17 0
9.9278708 -5.3304108e-13 0
9.9278708 -5.7648767e-13 0
9.9278708 -4.2847044e-09 0
9.9278708 -1.3172661e-06 0
9.9278674 0.0057114918 0
9.9251475 0.22672935 0
-9.9262901 0.21807901 0
-9.9290431 0.0054155959 0
-9.9290463 -1.264167e-06 0
-9.9290464 -3.8887543e-09 0
-9.9290464 9.8416447e-11 0
-9.9290464 1.1637163e-13 0
-9.9290464 -5.7869252e-14 0
-9.9290464 -2.3236967e-13 0
-9.9290464 2.1027638e-15 0
-9.9290464 -1.1755067e-13 0
-9.9290464 -2.315076e-13 0
-9.9290464 -3.4545928e-13 0
-9.9290464 -3.9137327e-13 0
-9.9290464 3.4714066e-13 0
-9.9290464 2.3151426e-13 0
-9.9290464 2.3335147e-13 0
-9.9290464 -1.8721709e-15 0
-9.9290464 -8.2702891e-18 0
-9.9290464 7.1672833e-17 0
-9.9290464 -2.2974921e-13 0
-9.9290464 -3.4401756e-13 0
-9.9290464 3.96134e-09 0
-9.9290463 1.2653693e-06 0
-9.9290431 -0.0054155947 0
-9.9262901 -0.21807901 0
9.9240573 -0.053319642 0
9.9242291 -0.0014329431 0
9.9242308 1.9699796e-07 0
9.9242308 5.6331131e-10 0
9.9242308 2.287522e-13 0
9.9242308 6.1613879e-14 0
9.9242308 -3.0768985e-14 0
9.9242308 -1.238925e-13 0
9.9242308 1.9562235e-15 0
9.9242308 -6.3216447e-14 0
9.9242308 -1.2308997e-13 0
9.9242308 -1.8296027e-13 0
9.9242308 -2.4779791e-13 0
9.9242308 1.8452041e-13 0
9.9242308 1.2309603e-13 0
9.9242308 1.248048e-13 0
9.9242308 -1.7423107e-15 0
9.9242308 -7.1239401e-18 0
9.9242308 6.6631736e-17 0
9.9242308 -1.2151822e-13 0
9.9242308 -1.6817072e-13 0
9.9242308 -5.9914137e-10 0
9.9242308 -1.973414e-07 0
9.9242291 0.0014329427 0
9.9240573 0.053319642 0
-9.9250397 0.048348954 0
-9.9251423 0.0012002233 0
-9.9251441 -2.0338255e-07 0
-9.9251441 -4.9080895e-10 0
-9.9251441 3.5910199e-13 0
-9.9251441 1.1229425e-13 0
-9.9251441 -5.6141253e-14 0
-9.9251441 -2.2532364e-13 0
-9.9251441 1.8123679e-15 0
-9.9251441 -1.1383756e-13 0
-9.9251441 -2.2457968e-13 0
-9.9251441 -3.3531821e-13 0
-9.9251441 -4.5065756e-13 0
-9.9251441 3.3676385e-13 0
-9.9251441 2.2458479e-13 0
-9.9251441 2.2616735e-13 0
-9.9251441 -1.6143533e-15 0
-9.9251441 -5.9839447e-18 0
-9.9251441 6.1939644e-17 0
-9.9251441 -2.2307147e-13 0
-9.9251441 -2.4774664e-13 0