# vtk DataFile Version 4.0
hesp visualization file
ASCII
DATASET UNSTRUCTURED_GRID
POINTS 32 double
6.0080226 1.1580211 4
6.0369445 2.2582037 4
6.0369445 3.3541065 4
6.0080226 4.4542891 4
7.108207 1.1869428 4
7.1180535 2.2680496 4
7.1180535 3.3442607 4
7.108207 4.4253674 4
8.2041148 1.1869435 4
8.1942705 2.2680498 4
8.1942705 3.3442604 4
8.2041148 4.4253668 4
9.3043128 1.1580259 4
9.2753949 2.2582054 4
9.2753949 3.3541048 4
9.3043128 4.4542844 4
12.307997 1.1580259 4
12.336915 2.2582054 4
12.336915 3.3541048 4
12.307997 4.4542844 4
13.408195 1.1869435 4
13.41804 2.2680498 4
13.41804 3.3442604 4
13.408195 4.4253668 4
14.504103 1.1869428 4
14.494257 2.2680496 4
14.494257 3.3442607 4
14.504103 4.4253674 4
15.604288 1.1580211 4
15.575366 2.2582037 4
15.575366 3.3541065 4
15.604288 4.4542891 4
CELLS 0 0
CELL_TYPES 0
POINT_DATA 32
SCALARS m double
LOOKUP_TABLE default
1
1
1
1
1
1
1
1
1
1
1
1
1
1
1
1
1
1
1
1
1
1
1
1
1
1
1
1
1
1
1
1
VECTORS v double
10.006967 0.0069450018 0
9.9977982 -0.012942096 0
9.9977982 0.012942096 0
10.006967 -0.0069450018 0
9.9871147 -0.0022275896 0
9.9636065 -0.036464662 0
9.9636065 0.036464662 0
9.9871147 0.0022275896 0
10.013116 -0.0022108816 0
10.036683 -0.036458361 0
10.036683 0.036458361 0
10.013116 0.0022108816 0
9.9937023 0.0070824748 0
10.002995 -0.012893909 0
10.002995 0.012893909 0
9.9937023 -0.0070824748 0
-9.9937023 0.0070824748 0
-10.002995 -0.012893909 0
-10.002995 0.012893909 0
-9.9937023 -0.0070824748 0
-10.013116 -0.0022108816 0
-10.036683 -0.036458361 0
-10.036683 0.036458361 0
-10.013116 0.0022108816 0
-9.9871147 -0.0022275896 0
-9.9636065 -0.036464662 0
-9.9636065 0.036464662 0
-9.9871147 0.0022275896 0
-10.006967 0.0069450018 0
-9.9977982 -0.012942096 0
-9.9977982 0.012942096 0
-10.006967 -0.0069450018 0
