# vtk DataFile Version 4.0
hesp visualization file
ASCII
DATASET UNSTRUCTURED_GRID
POINTS 1250 double
30.318656 1.2228903 4
30.326884 2.2473886 4
30.326888 3.3673854 4
30.326888 4.4898482 4
30.326888 5.6123102 4
30.326888 6.7347723 4
30.326888 7.8572343 4
30.326888 8.9796964 4
30.326888 10.102158 4
30.326888 11.22462 4
30.326888 12.347083 4
30.326888 13.469545 4
30.326888 14.592007 4
30.326888 15.714469 4
30.326888 16.836931 4
30.326888 17.959393 4
30.326888 19.081855 4
30.326888 20.204317 4
30.326888 21.326779 4
30.326888 22.449241 4
30.326888 23.571703 4
30.326888 24.694165 4
30.326888 25.816628 4
30.326884 26.936625 4
30.318656 27.961123 4
31.320349 0.85510105 4
31.000104 2.2328807 4
30.999849 3.3673894 4
30.999849 4.4898482 4
30.999849 5.6123102 4
30.999849 6.7347723 4
30.999849 7.8572343 4
30.999849 8.9796964 4
30.999849 10.102158 4
30.999849 11.22462 4
30.999849 12.347083 4
30.999849 13.469545 4
30.999849 14.592007 4
30.999849 15.714469 4
30.999849 16.836931 4
30.999849 17.959393 4
30.999849 19.081855 4
30.999849 20.204317 4
30.999849 21.326779 4
30.999849 22.449241 4
30.999849 23.571703 4
30.999849 24.694165 4
30.999849 25.816624 4
31.000104 26.951133 4
31.320349 28.328912 4
31.332304 1.3834519 4
31.653366 2.2568307 4
31.653621 3.3673831 4
31.653621 4.4898482 4
31.653621 5.6123102 4
31.653621 6.7347723 4
31.653621 7.8572343 4
31.653621 8.9796964 4
31.653621 10.102158 4
31.653621 11.22462 4
31.653621 12.347083 4
31.653621 13.469545 4
31.653621 14.592007 4
31.653621 15.714469 4
31.653621 16.836931 4
31.653621 17.959393 4
31.653621 19.081855 4
31.653621 20.204317 4
31.653621 21.326779 4
31.653621 22.449241 4
31.653621 23.571703 4
31.653621 24.694165 4
31.653621 25.81663 4
31.653366 26.927183 4
31.332304 27.800561 4
32.413304 0.88139131 4
32.32659 2.2381364 4
32.32653 3.3673876 4
32.32653 4.4898482 4
32.32653 5.6123102 4
32.32653 6.7347723 4
32.32653 7.8572343 4
32.32653 8.9796964 4
32.32653 10.102158 4
32.32653 11.22462 4
32.32653 12.347083 4
32.32653 13.469545 4
32.32653 14.592007 4
32.32653 15.714469 4
32.32653 16.836931 4
32.32653 17.959393 4
32.32653 19.081855 4
32.32653 20.204317 4
32.32653 21.326779 4
32.32653 22.449241 4
32.32653 23.571703 4
32.32653 24.694165 4
32.32653 25.816626 4
32.32659 26.945877 4
32.413304 28.302622 4
32.885883 1.2876314 4
32.980202 2.2497665 4
32.980267 3.3673852 4
32.980267 4.4898482 4
32.980267 5.6123102 4
32.980267 6.7347723 4
32.980267 7.8572343 4
32.980267 8.9796964 4
32.980267 10.102158 4
32.980267 11.22462 4
32.980267 12.347083 4
32.980267 13.469545 4
32.980267 14.592007 4
32.980267 15.714469 4
32.980267 16.836931 4
32.980267 17.959393 4
32.980267 19.081855 4
32.980267 20.204317 4
32.980267 21.326779 4
32.980267 22.449241 4
32.980267 23.571703 4
32.980267 24.694165 4
32.980267 25.816628 4
32.980202 26.934247 4
32.885883 27.896382 4
33.654396 1.0893932 4
33.653139 2.2440541 4
33.653138 3.3673863 4
33.653138 4.4898482 4
33.653138 5.6123102 4
33.653138 6.7347723 4
33.653138 7.8572343 4
33.653138 8.9796964 4
33.653138 10.102158 4
33.653138 11.22462 4
33.653138 12.347083 4
33.653138 13.469545 4
33.653138 14.592007 4
33.653138 15.714469 4
33.653138 16.836931 4
33.653138 17.959393 4
33.653138 19.081855 4
33.653138 20.204317 4
33.653138 21.326779 4
33.653138 22.449241 4
33.653138 23.571703 4
33.653138 24.694165 4
33.653138 25.816627 4
33.653139 26.939959 4
33.654396 28.09462 4
34.304992 1.1431034 4
34.306433 2.2454453 4
34.306434 3.3673861 4
34.306434 4.4898482 4
34.306434 5.6123102 4
34.306434 6.7347723 4
34.306434 7.8572343 4
34.306434 8.9796964 4
34.306434 10.102158 4
34.306434 11.22462 4
34.306434 12.347083 4
34.306434 13.469545 4
34.306434 14.592007 4
34.306434 15.714469 4
34.306434 16.836931 4
34.306434 17.959393 4
34.306434 19.081855 4
34.306434 20.204317 4
34.306434 21.326779 4
34.306434 22.449241 4
34.306434 23.571703 4
34.306434 24.694165 4
34.306434 25.816627 4
34.306433 26.938568 4
34.304992 28.04091 4
34.979689 1.1231687 4
34.979688 2.2449285 4
34.979688 3.3673861 4
34.979688 4.4898482 4
34.979688 5.6123102 4
34.979688 6.7347723 4
34.979688 7.8572343 4
34.979688 8.9796964 4
34.979688 10.102158 4
34.979688 11.22462 4
34.979688 12.347083 4
34.979688 13.469545 4
34.979688 14.592007 4
34.979688 15.714469 4
34.979688 16.836931 4
34.979688 17.959393 4
34.979688 19.081855 4
34.979688 20.204317 4
34.979688 21.326779 4
34.979688 22.449241 4
34.979688 23.571703 4
34.979688 24.694165 4
34.979688 25.816627 4
34.979688 26.939085 4
34.979689 28.060845 4
36.102158 1.1231684 4
36.102158 2.2449285 4
36.102158 3.3673861 4
36.102158 4.4898482 4
36.102158 5.6123102 4
36.102158 6.7347723 4
36.102158 7.8572343 4
36.102158 8.9796964 4
36.102158 10.102158 4
36.102158 11.22462 4
36.102158 12.347083 4
36.102158 13.469545 4
36.102158 14.592007 4
36.102158 15.714469 4
36.102158 16.836931 4
36.102158 17.959393 4
36.102158 19.081855 4
36.102158 20.204317 4
36.102158 21.326779 4
36.102158 22.449241 4
36.102158 23.571703 4
36.102158 24.694165 4
36.102158 25.816627 4
36.102158 26.939085 4
36.102158 28.060845 4
37.22462 1.1231684 4
37.22462 2.2449285 4
37.22462 3.3673861 4
37.22462 4.4898482 4
37.22462 5.6123102 4
37.22462 6.7347723 4
37.22462 7.8572343 4
37.22462 8.9796964 4
37.22462 10.102158 4
37.22462 11.22462 4
37.22462 12.347083 4
37.22462 13.469545 4
37.22462 14.592007 4
37.22462 15.714469 4
37.22462 16.836931 4
37.22462 17.959393 4
37.22462 19.081855 4
37.22462 20.204317 4
37.22462 21.326779 4
37.22462 22.449241 4
37.22462 23.571703 4
37.22462 24.694165 4
37.22462 25.816627 4
37.22462 26.939085 4
37.22462 28.060845 4
38.347083 1.1231684 4
38.347083 2.2449285 4
38.347083 3.3673861 4
38.347083 4.4898482 4
38.347083 5.6123102 4
38.347083 6.7347723 4
38.347083 7.8572343 4
38.347083 8.9796964 4
38.347083 10.102158 4
38.347083 11.22462 4
38.347083 12.347083 4
38.347083 13.469545 4
38.347083 14.592007 4
38.347083 15.714469 4
38.347083 16.836931 4
38.347083 17.959393 4
38.347083 19.081855 4
38.347083 20.204317 4
38.347083 21.326779 4
38.347083 22.449241 4
38.347083 23.571703 4
38.347083 24.694165 4
38.347083 25.816627 4
38.347083 26.939085 4
38.347083 28.060845 4
39.469545 1.1231684 4
39.469545 2.2449285 4
39.469545 3.3673861 4
39.469545 4.4898482 4
39.469545 5.6123102 4
39.469545 6.7347723 4
39.469545 7.8572343 4
39.469545 8.9796964 4
39.469545 10.102158 4
39.469545 11.22462 4
39.469545 12.347083 4
39.469545 13.469545 4
39.469545 14.592007 4
39.469545 15.714469 4
39.469545 16.836931 4
39.469545 17.959393 4
39.469545 19.081855 4
39.469545 20.204317 4
39.469545 21.326779 4
39.469545 22.449241 4
39.469545 23.571703 4
39.469545 24.694165 4
39.469545 25.816627 4
39.469545 26.939085 4
39.469545 28.060845 4
40.592007 1.1231684 4
40.592007 2.2449285 4
40.592007 3.3673861 4
40.592007 4.4898482 4
40.592007 5.6123102 4
40.592007 6.7347723 4
40.592007 7.8572343 4
40.592007 8.9796964 4
40.592007 10.102158 4
40.592007 11.22462 4
40.592007 12.347083 4
40.592007 13.469545 4
40.592007 14.592007 4
40.592007 15.714469 4
40.592007 16.836931 4
40.592007 17.959393 4
40.592007 19.081855 4
40.592007 20.204317 4
40.592007 21.326779 4
40.592007 22.449241 4
40.592007 23.571703 4
40.592007 24.694165 4
40.592007 25.816627 4
40.592007 26.939085 4
40.592007 28.060845 4
41.714469 1.1231684 4
41.714469 2.2449285 4
41.714469 3.3673861 4
41.714469 4.4898482 4
41.714469 5.6123102 4
41.714469 6.7347723 4
41.714469 7.8572343 4
41.714469 8.9796964 4
41.714469 10.102158 4
41.714469 11.22462 4
41.714469 12.347083 4
41.714469 13.469545 4
41.714469 14.592007 4
41.714469 15.714469 4
41.714469 16.836931 4
41.714469 17.959393 4
41.714469 19.081855 4
41.714469 20.204317 4
41.714469 21.326779 4
41.714469 22.449241 4
41.714469 23.571703 4
41.714469 24.694165 4
41.714469 25.816627 4
41.714469 26.939085 4
41.714469 28.060845 4
42.836931 1.1231684 4
42.836931 2.2449285 4
42.836931 3.3673861 4
42.836931 4.4898482 4
42.836931 5.6123102 4
42.836931 6.7347723 4
42.836931 7.8572343 4
42.836931 8.9796964 4
42.836931 10.102158 4
42.836931 11.22462 4
42.836931 12.347083 4
42.836931 13.469545 4
42.836931 14.592007 4
42.836931 15.714469 4
42.836931 16.836931 4
42.836931 17.959393 4
42.836931 19.081855 4
42.836931 20.204317 4
42.836931 21.326779 4
42.836931 22.449241 4
42.836931 23.571703 4
42.836931 24.694165 4
42.836931 25.816627 4
42.836931 26.939085 4
42.836931 28.060845 4
43.959393 1.1231684 4
43.959393 2.2449285 4
43.959393 3.3673861 4
43.959393 4.4898482 4
43.959393 5.6123102 4
43.959393 6.7347723 4
43.959393 7.8572343 4
43.959393 8.9796964 4
43.959393 10.102158 4
43.959393 11.22462 4
43.959393 12.347083 4
43.959393 13.469545 4
43.959393 14.592007 4
43.959393 15.714469 4
43.959393 16.836931 4
43.959393 17.959393 4
43.959393 19.081855 4
43.959393 20.204317 4
43.959393 21.326779 4
43.959393 22.449241 4
43.959393 23.571703 4
43.959393 24.694165 4
43.959393 25.816627 4
43.959393 26.939085 4
43.959393 28.060845 4
45.081855 1.1231684 4
45.081855 2.2449285 4
45.081855 3.3673861 4
45.081855 4.4898482 4
45.081855 5.6123102 4
45.081855 6.7347723 4
45.081855 7.8572343 4
45.081855 8.9796964 4
45.081855 10.102158 4
45.081855 11.22462 4
45.081855 12.347083 4
45.081855 13.469545 4
45.081855 14.592007 4
45.081855 15.714469 4
45.081855 16.836931 4
45.081855 17.959393 4
45.081855 19.081855 4
45.081855 20.204317 4
45.081855 21.326779 4
45.081855 22.449241 4
45.081855 23.571703 4
45.081855 24.694165 4
45.081855 25.816627 4
45.081855 26.939085 4
45.081855 28.060845 4
46.204317 1.1231684 4
46.204317 2.2449285 4
46.204317 3.3673861 4
46.204317 4.4898482 4
46.204317 5.6123102 4
46.204317 6.7347723 4
46.204317 7.8572343 4
46.204317 8.9796964 4
46.204317 10.102158 4
46.204317 11.22462 4
46.204317 12.347083 4
46.204317 13.469545 4
46.204317 14.592007 4
46.204317 15.714469 4
46.204317 16.836931 4
46.204317 17.959393 4
46.204317 19.081855 4
46.204317 20.204317 4
46.204317 21.326779 4
46.204317 22.449241 4
46.204317 23.571703 4
46.204317 24.694165 4
46.204317 25.816627 4
46.204317 26.939085 4
46.204317 28.060845 4
47.326779 1.1231684 4
47.326779 2.2449285 4
[...]
POINT_DATA 1250
SCALARS m double
LOOKUP_TABLE default
1
1
1
1
1
1
1
1
1
1
1
1
1
1
1
1
1
1
1
1
1
1
1
1
1
1
1
1
1
1
1
1
1
1
1
1
1
1
1
1
1
1
1
1
1
1
1
1
1
1
1
1
1
1
1
1
1
1
1
1
1
1
1
1
1
1
1
1
1
1
1
1
1
1
1
1
1
1
1
1
1
1
1
1
1
1
1
1
1
1
1
1
1
1
1
1
1
1
1
1
1
1
1
1
1
1
1
1
1
1
1
1
1
1
1
1
1
1
1
1
1
1
1
1
1
1
1
1
1
1
1
1
1
1
1
1
1
1
1
1
1
1
1
1
1
1
1
1
1
1
1
1
1
1
1
1
1
1
1
1
1
1
1
1
1
1
1
1
1
1
1
1
1
1
1
1
1
1
1
1
1
1
1
1
1
1
1
1
1
1
1
1
1
1
1
1
1
1
1
1
1
1
1
1
1
1
1
1
1
1
1
1
1
1
1
1
1
1
1
1
1
1
1
1
1
1
1
1
1
1
1
1
1
1
1
1
1
1
1
1
1
1
1
1
1
1
1
1
1
1
1
1
1
1
1
1
1
1
1
1
1
1
1
1
1
1
1
1
1
1
1
1
1
1
1
1
1
1
1
1
1
1
1
1
1
1
1
1
1
1
1
1
1
1
1
1
1
1
1
1
1
1
1
1
1
1
1
1
1
1
1
1
1
1
1
1
1
1
1
1
1
1
1
1
1
1
1
1
1
1
1
1
1
1
1
1
1
1
1
1
1
1
1
1
1
1
1
1
1
1
1
1
1
1
1
1
1
1
1
1
1
1
1
1
1
1
1
1
1
1
1
1
1
1
1
1
1
1
1
1
1
1
1
1
1
1
1
1
1
1
1
1
1
1
1
1
1
1
1
1
1
1
1
1
1
1
1
1
1
1
1
1
1
1
1
1
1
1
1
1
1
1
1
1
1
1
1
1
1
1
1
1
1
1
1
1
1
1
1
1
1
1
1
1
1
1
1
1
1
1
1
1
1
1
1
1
1
1
1
1
1
1
1
1
1
1
1
1
1
1
1
1
1
1
1
1
1
1
1
1
1
1
1
1
1
1
1
1
1
1
1
1
1
1
1
1
1
1
1
1
1
1
1
1
1
1
1
1
1
1
1
1
1
1
1
1
1
1
1
1
1
1
1
1
1
1
1
1
1
1
1
1
1
1
1
1
1
1
1
1
1
1
1
1
1
1
1
1
1
1
1
1
1
1
1
1
1
1
1
1
1
1
1
1
1
1
1
1
1
1
1
1
1
1
1
1
1
1
1
1
1
1
1
1
1
1
1
1
1
1
1
1
1
1
1
1
1
1
1
1
1
1
1
1
1
1
1
1
1
1
1
1
1
1
1
1
1
1
1
1
1
1
1
1
1
1
1
1
1
1
1
1
1
1
1
1
1
1
1
1
1
1
1
1
1
1
1
1
1
1
1
1
1
1
1
1
1
1
1
1
1
1
1
1
1
1
1
1
1
1
1
1
1
1
1
1
1
1
1
1
1
1
1
1
1
1
1
1
1
1
1
1
1
1
1
1
1
1
1
1
1
1
1
1
1
1
1
1
1
1
1
1
1
1
1
1
1
1
1
1
1
1
1
1
1
1
1
1
1
1
1
1
1
1
1
1
1
1
1
1
1
1
1
1
1
1
1
1
1
1
1
1
1
1
1
1
1
1
1
1
1
1
1
1
1
1
1
1
1
1
1
1
1
1
1
1
1
1
1
1
1
1
1
1
1
1
1
1
1
1
1
1
1
1
1
1
1
1
1
1
1
1
1
1
1
1
1
1
1
1
1
1
1
1
1
1
1
1
1
1
1
1
1
1
1
1
1
1
1
1
1
1
1
1
1
1
1
1
1
1
1
1
1
1
1
1
1
1
1
1
1
1
1
1
1
1
1
1
1
1
1
1
1
1
1
1
1
1
1
1
1
1
1
1
1
1
1
1
1
1
1
1
1
1
1
1
1
1
1
1
1
1
1
1
1
1
1
1
1
1
1
1
1
1
1
1
1
1
1
1
1
1
1
1
1
1
1
1
1
1
1
1
1
1
1
1
1
1
1
1
1
1
1
1
1
1
1
1
1
1
1
1
1
1
1
1
1
1
1
1
1
1
1
1
1
1
1
1
1
1
1
1
1
1
1
1
1
1
1
1
1
1
1
1
1
1
1
1
1
1
1
1
1
1
1
1
1
1
1
1
1
1
1
1
1
1
1
1
1
1
1
1
1
1
1
1
1
1
1
1
1
1
1
1
1
1
1
1
1
1
1
1
1
1
1
1
1
1
1
1
1
1
1
1
1
1
1
1
1
1
1
1
1
1
1
1
1
1
1
1
1
1
1
1
1
1
1
1
1
1
1
1
1
1
1
1
1
1
1
1
1
1
1
1
1
1
1
1
1
1
1
1
1
1
1
1
1
1
1
1
1
1
1
1
1
1
1
1
1
1
1
1
1
1
1
1
1
1
1
1
1
1
1
1
1
1
1
1
1
1
1
1
1
1
1
1
1
1
1
1
1
1
1
1
1
1
1
1
1
1
1
1
1
1
1
1
1
1
1
1
1
1
1
1
1
1
1
1
1
1
1
1
1
1
1
1
1
1
1
1
1
1
1
1
1
1
1
1
1
1
1
1
1
1
1
1
1
1
1
1
1
1
1
1
1
1
1
1
1
1
1
1
1
1
1
1
1
1
1
1
1
1
1
1
1
1
1
1
1
1
1
1
1
1
1
1
1
1
1
1
1
1
1
1
1
1
1
1
1
1
1
1
1
1
1
1
1
1
1
1
VECTORS v double
9.8863041 1.4278123 0
10.006398 0.034963255 0
10.006476 -1.5167078e-05 0
10.006476 -1.0618843e-08 0
10.006476 -2.2924887e-08 0
10.006476 5.749894e-13 0
10.006476 -1.519148e-13 0
10.006476 -6.0096734e-13 0
10.006476 3.3908209e-15 0
10.006476 -3.06087e-13 0
10.006476 -5.9954315e-13 0
10.006476 7.2561358e-12 0
10.006476 4.9551631e-10 0
10.006476 -7.2637974e-12 0
10.006476 6.0637537e-13 0
10.006476 6.0937447e-13 0
10.006476 -3.0098478e-15 0
10.006476 -1.5097042e-17 0
10.006476 1.1580088e-16 0
10.006476 -6.2039691e-13 0
10.006476 -7.638947e-12 0
10.006476 9.2944198e-09 0
10.006476 1.5178692e-05 0
10.006398 -0.034963241 0
9.8863041 -1.4278123 0
3.5520541 -9.4157701 0
-9.9954712 -0.44380989 0
-10.005338 0.00011946749 0
-10.005339 1.5698749e-07 0
-10.005339 1.2069933e-08 0
-10.005339 4.4922113e-14 0
-10.005339 -1.2097615e-13 0
-10.005339 -4.8637525e-13 0
-10.005339 3.2471033e-15 0
-10.005339 -2.4529847e-13 0
-10.005339 -4.8506023e-13 0
-10.005339 -7.2136334e-13 0
-10.005339 -1.7279501e-10 0
-10.005339 7.3036624e-13 0
-10.005339 4.8505595e-13 0
-10.005339 4.8789406e-13 0
-10.005339 -2.8893098e-15 0
-10.005339 -1.4160756e-17 0
-10.005339 1.1035714e-16 0
-10.005339 -4.904554e-13 0
-10.005339 1.4968684e-12 0
-10.005339 -1.5828891e-07 0
-10.005338 -0.00011956875 0
-9.9954712 0.44380979 0
3.5520541 9.4157701 0
-3.5614112 9.3284272 0
9.9974748 0.44176986 0
10.007329 -0.00011803752 0
10.007328 -1.4474782e-07 0
10.007328 -1.0674096e-08 0
10.007328 2.0175111e-13 0
10.007328 -8.5359822e-14 0
10.007328 -3.4093514e-13 0
10.007328 3.1013925e-15 0
10.007328 -1.7248173e-13 0
10.007328 -3.3965467e-13 0
10.007328 -5.0626033e-13 0
10.007328 1.4036237e-10 0
10.007328 5.0990038e-13 0
10.007328 3.3968458e-13 0
10.007328 3.4238346e-13 0
10.007328 -2.7609152e-15 0
10.007328 -1.3023065e-17 0
10.007328 1.0635421e-16 0
10.007328 -3.3911968e-13 0
10.007328 -2.5527175e-12 0
10.007328 1.4613045e-07 0
10.007329 0.00011813841 0
9.9974748 -0.44176976 0
-3.5614112 -9.3284272 0
-6.528861 -8.1518698 0
-10.001896 -0.22936886 0
-10.004232 5.1622692e-05 0
-10.004233 1.1261055e-07 0
-10.004233 1.6927904e-09 0
-10.004233 2.0731077e-13 0
-10.004233 -1.1591048e-13 0
-10.004233 -4.6576432e-13 0
-10.004233 2.9540932e-15 0
-10.004233 -2.3480148e-13 0
-10.004233 -4.6455704e-13 0
-10.004233 -6.9442964e-13 0
-10.004233 -9.4106285e-13 0
-10.004233 6.9653103e-13 0
-10.004233 4.6455993e-13 0
-10.004233 4.6714393e-13 0
-10.004233 -2.6301295e-15 0
-10.004233 -1.1875808e-17 0
-10.004233 1.002593e-16 0
-10.004233 -4.6182755e-13 0
-10.004233 3.1273775e-13 0
-10.004233 -1.137166e-07 0
-10.004232 -5.1675447e-05 0
-10.001896 0.22936881 0
-6.528861 8.1518698 0
6.4281192 7.0391866 0
10.005303 0.20110721 0
10.007673 -4.1706133e-05 0
10.007672 -6.6138783e-08 0
10.007672 -1.383921e-09 0
10.007672 1.2038929e-13 0
10.007672 -6.6212178e-14 0
10.007672 -2.6564271e-13 0
10.007672 2.8075575e-15 0
10.007672 -1.346446e-13 0
10.007672 -2.644917e-13 0
10.007672 -3.9433543e-13 0
10.007672 -5.1383986e-13 0
10.007672 3.9657126e-13 0
10.007672 2.6450063e-13 0
10.007672 2.6695258e-13 0
10.007672 -2.5004465e-15 0
10.007672 -1.0729186e-17 0
10.007672 9.5509395e-17 0
10.007672 -2.552422e-13 0
10.007672 2.2600864e-12 0
10.007672 6.7138668e-08 0
10.007673 4.1752441e-05 0
10.005303 -0.20110716 0
6.4281192 -7.0391866 0
-9.9535228 -1.094087 0
-10.003447 -0.028383233 0
-10.00348 4.5196301e-06 0
-10.00348 2.3426641e-09 0
-10.00348 1.1236098e-12 0
-10.00348 4.8165396e-14 0
-10.00348 -2.2338754e-14 0
-10.00348 -9.0605856e-14 0
-10.00348 2.6625411e-15 0
-10.00348 -4.7029533e-14 0
-10.00348 -8.9513013e-14 0
-10.00348 -1.3199159e-13 0
-10.00348 -1.8122709e-13 0
-10.00348 1.3411449e-13 0
-10.00348 8.9520816e-14 0
-10.00348 9.1845335e-14 0
-10.00348 -2.3715418e-15 0
-10.00348 -9.5967734e-18 0
-10.00348 9.1598397e-17 0
-10.00348 -8.9228983e-14 0
-10.00348 -1.1233946e-12 0
-10.00348 -2.5401904e-09 0
-10.00348 -4.5262803e-06 0
-10.003447 0.028383227 0
-9.9535228 1.094087 0
9.9544724 0.89858412 0
10.00618 0.023205127 0
10.006213 -3.4014494e-06 0
10.006212 -3.6936789e-09 0
10.006212 -1.4063302e-13 0
10.006212 2.492758e-15 0
10.006212 -1.3383128e-15 0
10.006212 -6.4080763e-15 0
10.006212 2.5171376e-15 0
10.006212 -4.8361624e-15 0
10.006212 -5.3745653e-15 0
10.006212 -5.9081424e-15 0
10.006212 -1.2830602e-14 0
10.006212 7.9159861e-15 0
10.006212 5.3818628e-15 0
10.006212 7.578965e-15 0
10.006212 -2.2427242e-15 0
10.006212 -8.4387323e-18 0
10.006212 8.6745294e-17 0
10.006212 -2.9719135e-15 0
10.006212 1.424205e-13 0
10.006212 3.8546804e-09 0
10.006213 3.4068722e-06 0
10.00618 -0.023205122 0
9.9544724 -0.89858412 0
-10.001391 0.0035878385 0
-10.001431 2.009383e-05 0
-10.00143 -9.9345406e-08 0
-10.00143 -6.7408069e-10 0
-10.00143 2.1494051e-13 0
-10.00143 2.6179894e-16 0
-10.00143 -2.631636e-18 0
-10.00143 -1.0110143e-15 0
-10.00143 2.382438e-15 0
-10.00143 -2.0498089e-15 0
-10.00143 -3.2308228e-17 0
-10.00143 1.9897288e-15 0
-10.00143 -2.0347375e-15 0
-10.00143 -8.9090524e-17 0
-10.00143 3.8956943e-17 0
-10.00143 2.1183937e-15 0
-10.00143 -2.1232609e-15 0
-10.00143 -7.5062849e-18 0
-10.00143 8.2242518e-17 0
-10.00143 1.7067251e-15 0
-10.00143 -2.167078e-13 0
-10.00143 6.7407906e-10 0
-10.00143 9.9345576e-08 0
-10.001431 -2.009383e-05 0
-10.001391 -0.0035878385 0
-10.000004 0.0035345706 0
-10.000005 1.9590723e-05 0
-10.000005 -4.9373621e-08 0
-10.000005 -9.5614216e-11 0
-10.000005 1.2144444e-13 0
-10.000005 1.5181177e-16 0
-10.000005 -2.943758e-18 0
-10.000005 -1.00913e-15 0
-10.000005 2.3724048e-15 0
-10.000005 -2.0420279e-15 0
-10.000005 -3.4186057e-17 0
-10.000005 1.9781816e-15 0
-10.000005 -2.0300552e-15 0
-10.000005 -8.5579109e-17 0
-10.000005 4.0578144e-17 0
-10.000005 2.1114276e-15 0
-10.000005 -2.1143607e-15 0
-10.000005 -7.3000556e-18 0
-10.000005 8.1801647e-17 0
-10.000005 1.8078115e-15 0
-10.000005 -1.2287529e-13 0
-10.000005 9.5613617e-11 0
-10.000005 4.937362e-08 0
-10.000005 -1.9590723e-05 0
-10.000004 -0.0035345706 0
-10 0.0035339669 0
-10 1.9595547e-05 0
-10 -4.9198799e-08 0
-10 -9.5641862e-11 0
-10 1.2136236e-13 0
-10 1.5180875e-16 0
-10 -3.02205e-18 0
-10 -1.0093839e-15 0
-10 2.3724542e-15 0
-10 -2.0417494e-15 0
-10 -3.4239648e-17 0
-10 1.9780352e-15 0
-10 -2.0301615e-15 0
-10 -8.5352382e-17 0
-10 4.0611736e-17 0
-10 2.1114751e-15 0
-10 -2.1143586e-15 0
-10 -7.2979308e-18 0
-10 8.1751665e-17 0
-10 1.8078008e-15 0
-10 -1.2279207e-13 0
-10 9.5641292e-11 0
-10 4.9198798e-08 0
-10 -1.9595547e-05 0
-10 -0.0035339669 0
-10 0.0035339669 0
-10 1.9595547e-05 0
-10 -4.91988e-08 0
-10 -9.5641895e-11 0
-10 1.2136234e-13 0
-10 1.5187596e-16 0
-10 -3.0063539e-18 0
-10 -1.0089091e-15 0
-10 2.3722573e-15 0
-10 -2.0422561e-15 0
-10 -3.4370251e-17 0
-10 1.9781467e-15 0
-10 -2.0302233e-15 0
-10 -8.5448244e-17 0
-10 4.0789498e-17 0
-10 2.1114552e-15 0
-10 -2.1143258e-15 0
-10 -7.3076886e-18 0
-10 8.1748015e-17 0
-10 1.8078205e-15 0
-10 -1.2279223e-13 0
-10 9.5641325e-11 0
-10 4.9198799e-08 0
-10 -1.9595547e-05 0
-10 -0.0035339669 0
-10 0.0035339669 0
-10 1.9595547e-05 0
-10 -4.91988e-08 0
-10 -9.5641895e-11 0
-10 1.2136243e-13 0
-10 1.518643e-16 0
-10 -2.9493657e-18 0
-10 -1.0091404e-15 0
-10 2.3723251e-15 0
-10 -2.0420139e-15 0
-10 -3.4237483e-17 0
-10 1.9780115e-15 0
-10 -2.0299409e-15 0
-10 -8.5474646e-17 0
-10 4.0930079e-17 0
-10 2.1114284e-15 0
-10 -2.1142351e-15 0
-10 -7.2996396e-18 0
-10 8.1711138e-17 0
-10 1.8078317e-15 0
-10 -1.2279224e-13 0
-10 9.5641325e-11 0
-10 4.9198799e-08 0
-10 -1.9595547e-05 0
-10 -0.0035339669 0
-10 0.0035339669 0
-10 1.9595547e-05 0
-10 -4.91988e-08 0
-10 -9.5641895e-11 0
-10 1.2136244e-13 0
-10 1.517703e-16 0
-10 -3.0206443e-18 0
-10 -1.0093871e-15 0
-10 2.3724449e-15 0
-10 -2.0416699e-15 0
-10 -3.4210629e-17 0
-10 1.9780561e-15 0
-10 -2.0301925e-15 0
-10 -8.5416704e-17 0
-10 4.0551795e-17 0
-10 2.1114431e-15 0
-10 -2.1143038e-15 0
-10 -7.2977895e-18 0
-10 8.1694733e-17 0
-10 1.8078801e-15 0
-10 -1.2279242e-13 0
-10 9.5641325e-11 0
-10 4.9198799e-08 0
-10 -1.9595547e-05 0
-10 -0.0035339669 0
-10 0.0035339669 0
-10 1.9595547e-05 0
-10 -4.91988e-08 0
-10 -9.5641895e-11 0
-10 1.2136249e-13 0
-10 1.517755e-16 0
-10 -3.0206443e-18 0
-10 -1.0088667e-15 0
-10 2.3724449e-15 0
-10 -2.0421904e-15 0
-10 -3.4210629e-17 0
-10 1.9782295e-15 0
-10 -2.0301925e-15 0
-10 -8.5416704e-17 0
-10 4.0551795e-17 0
-10 2.1114431e-15 0
-10 -2.1143038e-15 0
-10 -7.2977895e-18 0
-10 8.1694733e-17 0
-10 1.8078806e-15 0
-10 -1.2279232e-13 0
-10 9.5641325e-11 0
-10 4.9198799e-08 0
-10 -1.9595547e-05 0
-10 -0.0035339669 0
-10 0.0035339669 0
-10 1.9595547e-05 0
-10 -4.91988e-08 0
-10 -9.5641895e-11 0
-10 1.2136245e-13 0
-10 1.5187249e-16 0
-10 -3.0028844e-18 0
-10 -1.0088874e-15 0
-10 2.3722382e-15 0
-10 -2.04225e-15 0
-10 -3.4371986e-17 0
-10 1.9781536e-15 0
-10 -2.0303309e-15 0
-10 -8.5500285e-17 0
-10 4.0784293e-17 0
-10 2.1114344e-15 0
-10 -2.1143137e-15 0
-10 -7.3076886e-18 0
-10 8.1737606e-17 0
-10 1.8078449e-15 0
-10 -1.2279226e-13 0
-10 9.5641325e-11 0
-10 4.9198799e-08 0
-10 -1.9595547e-05 0
-10 -0.0035339669 0
-10 0.0035339669 0
-10 1.9595547e-05 0
-10 -4.91988e-08 0
-10 -9.5641895e-11 0
-10 1.2136242e-13 0
-10 1.518591e-16 0
-10 -2.9493657e-18 0
-10 -1.0091404e-15 0
-10 2.3723251e-15 0
-10 -2.0420139e-15 0
-10 -3.4237483e-17 0
-10 1.9780115e-15 0
-10 -2.0299409e-15 0
-10 -8.5474646e-17 0
-10 4.0930079e-17 0
-10 2.1114284e-15 0
-10 -2.1142351e-15 0
-10 -7.2996396e-18 0
-10 8.1711138e-17 0
-10 1.8078316e-15 0
-10 -1.227923e-13 0
-10 9.5641326e-11 0
-10 4.9198799e-08 0
-10 -1.9595547e-05 0
-10 -0.0035339669 0
-10 0.0035339669 0
-10 1.9595547e-05 0
-10 -4.91988e-08 0
-10 -9.5641895e-11 0
-10 1.2136228e-13 0
-10 1.517755e-16 0
-10 -3.0206443e-18 0
-10 -1.0093871e-15 0
-10 2.3724449e-15 0
-10 -2.0416699e-15 0
-10 -3.4210629e-17 0
-10 1.9780561e-15 0
-10 -2.0301925e-15 0
-10 -8.5416704e-17 0
-10 4.0551795e-17 0
-10 2.1114431e-15 0
-10 -2.1143038e-15 0
-10 -7.2977895e-18 0
-10 8.1694733e-17 0
-10 1.8078806e-15 0
-10 -1.2279207e-13 0
-10 9.5641325e-11 0
-10 4.9198799e-08 0
-10 -1.9595547e-05 0
-10 -0.0035339669 0
-10 0.0035339669 0
-10 1.9595547e-05 0
-10 -4.91988e-08 0
-10 -9.5641895e-11 0
-10 1.2136238e-13 0
-10 1.5178417e-16 0
-10 -3.0206443e-18 0
-10 -1.0088667e-15 0
-10 2.3724449e-15 0
-10 -2.0421904e-15 0
-10 -3.4210629e-17 0
-10 1.9782295e-15 0
-10 -2.0301925e-15 0
-10 -8.5416704e-17 0
-10 4.0551795e-17 0
-10 2.1114431e-15 0
-10 -2.1143038e-15 0
-10 -7.2977895e-18 0
-10 8.1694733e-17 0
-10 1.8078803e-15 0
-10 -1.227921e-13 0
-10 9.5641325e-11 0
-10 4.9198799e-08 0
-10 -1.9595547e-05 0
-10 -0.0035339669 0
-10 0.0035339669 0
-10 1.9595547e-05 0
-10 -4.91988e-08 0
-10 -9.5641895e-11 0
-10 1.2136239e-13 0
-10 1.5178591e-16 0
-10 -3.0206443e-18 0
-10 -1.0088667e-15 0
-10 2.3724449e-15 0
-10 -2.0421904e-15 0
-10 -3.4210629e-17 0
-10 1.9782295e-15 0
-10 -2.030366e-15 0
-10 -8.5416704e-17 0
-10 4.0551795e-17 0
-10 2.1114431e-15 0
-10 -2.1143038e-15 0
-10 -7.2977895e-18 0
-10 8.1694733e-17 0
-10 1.8078806e-15 0
-10 -1.227921e-13 0
-10 9.5641325e-11 0
-10 4.9198799e-08 0
-10 -1.9595547e-05 0
-10 -0.0035339669 0
-10 0.0035339669 0
-10 1.9595547e-05 0
-10 -4.91988e-08 0
-10 -9.5641895e-11 0
-10 1.2136224e-13 0
-10 1.5191694e-16 0
-10 -2.9594454e-18 0
-10 -1.0091152e-15 0
-10 2.3724094e-15 0
-10 -2.0421709e-15 0
-10 -3.4351547e-17 0
-10 1.9781102e-15 0
-10 -2.0302575e-15 0
-10 -8.5526719e-17 0
-10 4.0754069e-17 0
-10 2.1113109e-15 0
-10 -2.1142017e-15 0
-10 -7.3095387e-18 0
-10 8.1717502e-17 0
-10 1.8076507e-15 0
-10 -1.2279215e-13 0
-10 9.5641325e-11 0
-10 4.9198799e-08 0
-10 -1.9595547e-05 0
-10 -0.0035339669 0
-10 0.0035339669 0
-10 1.9595547e-05 0
-10 -4.91988e-08 0
-10 -9.5641896e-11 0
-10 1.213626e-13 0
-10 1.520184e-16 0
-10 -3.0191424e-18 0
-10 -1.0095531e-15 0
-10 2.3726929e-15 0
-10 -2.042255e-15 0
-10 -3.4264378e-17 0
-10 1.9782836e-15 0
-10 -2.0306856e-15 0
-10 -8.4971634e-17 0
-10 4.0826197e-17 0
-10 2.1114429e-15 0
-10 -2.1143763e-15 0
-10 -7.3011634e-18 0
-10 8.182305e-17 0
-10 1.8070919e-15 0
-10 -1.227922e-13 0
-10 9.5641326e-11 0
-10 4.9198799e-08 0
-10 -1.9595547e-05 0
-10 -0.0035339669 0
-10 0.0035339669 0
-10 1.9595547e-05 0
-10 -4.91988e-08 0
-10 -9.5641887e-11 0
-10 1.2136255e-13 0
-10 1.5197756e-16 0
-10 -3.0007596e-18 0
-10 -1.0091671e-15 0
-10 2.3724821e-15 0
-10 -2.0421584e-15 0
-10 -3.4265819e-17 0
-10 1.9782219e-15 0
-10 -2.0305907e-15 0
-10 -8.5299058e-17 0
-10 4.0781632e-17 0
-10 2.1115554e-15 0
-10 -2.1146078e-15 0
-10 -7.3027437e-18 0
-10 8.2098425e-17 0
-10 1.807359e-15 0
-10 -1.2279226e-13 0
-10 9.5641317e-11 0
-10 4.9198799e-08 0
-10 -1.9595547e-05 0
-10 -0.0035339669 0
-10 0.0035339678 0
-10 1.959554e-05 0
-10 -4.9199191e-08 0
-10 -9.5641689e-11 0
-10 1.2136367e-13 0
-10 1.5190753e-16 0
-10 -2.9277429e-18 0
-10 -1.0087723e-15 0
-10 2.372338e-15 0
-10 -2.0419552e-15 0
-10 -3.4010833e-17 0
-10 1.978545e-15 0
-10 -2.0295745e-15 0
-10 -8.6196595e-17 0
-10 4.0607333e-17 0
-10 2.1111368e-15 0
-10 -2.1145933e-15 0
-10 -7.3027817e-18 0
-10 8.2096521e-17 0
-10 1.8076764e-15 0
-10 -1.227938e-13 0
-10 9.5641099e-11 0
-10 4.9199191e-08 0
-10 -1.959554e-05 0
-10 -0.0035339678 0
-10.00002 0.0035340945 0
-10.00002 1.9611115e-05 0
-10.00002 -4.9212248e-08 0
-10.00002 -9.5693532e-11 0
-10.00002 1.2140666e-13 0
-10.00002 1.5237559e-16 0
-10.00002 -3.1552048e-18 0
-10.00002 -1.0103879e-15 0
-10.00002 2.3723963e-15 0
-10.00002 -2.0425139e-15 0
-10.00002 -3.5186871e-17 0
-10.00002 1.9768823e-15 0
-10.00002 -2.0327134e-15 0
-10.00002 -8.4047167e-17 0
-10.00002 4.1869502e-17 0
-10.00002 2.1124437e-15 0
-10.00002 -2.1149564e-15 0
-10.00002 -7.3029e-18 0
-10.00002 8.2390469e-17 0
-10.00002 1.8063713e-15 0
-10.00002 -1.2283987e-13 0
-10.00002 9.5692827e-11 0
-10.00002 4.9212248e-08 0
-10.00002 -1.9611115e-05 0
-10.00002 -0.0035340945 0
-10.003339 0.0033389523 0
-10.003534 1.9969582e-05 0
-10.003534 -4.7559056e-08 0
-10.003534 -9.7404672e-11 0
-10.003534 1.1794416e-13 0
-10.003534 1.5470941e-16 0
-10.003534 -3.4446761e-18 0
-10.003534 -9.8641469e-16 0
-10.003534 2.3120984e-15 0
-10.003534 -1.9912518e-15 0
-10.003534 -3.5811585e-17 0
-10.003534 1.9247685e-15 0
-10.003534 -1.9845472e-15 0
-10.003534 -7.9807975e-17 0
-10.003534 4.2630225e-17 0
-10.003534 2.0602441e-15 0
-10.003534 -2.0616494e-15 0
-10.003534 -7.3027694e-18 0
-10.003534 8.089649e-17 0
-10.003534 1.7537695e-15 0
-10.003534 -1.1928585e-13 0
-10.003534 9.7403564e-11 0
-10.003534 4.7559057e-08 0
-10.003534 -1.9969582e-05 0
-10.003339 -0.0033389523 0
-9.8863041 1.4278123 0
-10.006398 0.034963251 0
-10.006476 -1.5171971e-05 0
-10.006476 -9.3314848e-09 0
-10.006476 2.3210551e-08 0
-10.006476 1.9014027e-13 0
-10.006476 -2.3459394e-13 0
-10.006476 -9.5475977e-13 0
-10.006476 3.4028518e-15 0
-10.006476 -4.7254433e-13 0
-10.006476 -9.5310279e-13 0
-10.006476 -9.1027217e-12 0
-10.006476 -5.046399e-10 0
-10.006476 9.1215216e-12 0
-10.006476 9.391006e-13 0
-10.006476 9.4231493e-13 0
-10.006476 -3.009868e-15 0
-10.006476 -1.5311094e-17 0
-10.006476 1.1521714e-16 0
-10.006476 -9.5330739e-13 0
-10.006476 -9.0811293e-12 0
-10.006476 1.1071625e-08 0
-10.006476 1.5175819e-05 0
-10.006398 -0.03496325 0
-9.8863041 -1.4278123 0
-3.5520541 -9.4157701 0
9.9954712 -0.44380989 0
10.005338 0.00011946896 0
10.005339 1.5439792e-07 0
10.005339 -1.4671322e-08 0
10.005339 5.5111742e-13 0
10.005339 -1.4682529e-13 0
10.005339 -5.8777928e-13 0
10.005339 3.2511235e-15 0
10.005339 -2.9596854e-13 0
10.005339 -5.8640122e-13 0
10.005339 -7.4490753e-13 0
10.005339 1.9568603e-10 0
10.005339 7.4119127e-13 0
10.005339 5.8637649e-13 0
10.005339 5.8924067e-13 0
10.005339 -2.8902627e-15 0
10.005339 -1.4156795e-17 0
10.005339 1.1079618e-16 0
10.005339 -5.9194692e-13 0
10.005339 1.0270731e-12 0
10.005339 -1.6013205e-07 0
10.005338 -0.00011956614 0
9.9954712 0.4438098 0
-3.5520541 9.4157701 0
3.5614112 9.3284272 0
-9.9974748 0.44176986 0
-10.007329 -0.00011803853 0
-10.007328 -1.4202979e-07 0
-10.007328 1.3131882e-08 0
-10.007328 2.196844e-13 0
-10.007328 -1.3300079e-13 0
-10.007328 -5.3528845e-13 0
-10.007328 3.1011578e-15 0
-10.007328 -2.6965906e-13 0
-10.007328 -5.3402564e-13 0
-10.007328 -7.9895485e-13 0
-10.007328 -1.5848228e-10 0
-10.007328 8.00291e-13 0
-10.007328 5.3401438e-13 0
-10.007328 5.3673745e-13 0
-10.007328 -2.7599215e-15 0
-10.007328 -1.3026978e-17 0
-10.007328 1.0519189e-16 0
-10.007328 -5.334385e-13 0
-10.007328 -2.5485001e-12 0
-10.007328 1.4796077e-07 0
-10.007329 0.00011813589 0
-9.9974748 -0.44176977 0
3.5614112 -9.3284272 0
6.528861 -8.1518698 0
10.001896 -0.22936886 0
10.004232 5.1621775e-05 0
10.004233 1.1060498e-07 0
10.004233 -2.3570768e-09 0
10.004233 1.6549073e-13 0
10.004233 -6.5203803e-14 0
10.004233 -2.6096407e-13 0
10.004233 2.9543776e-15 0
10.004233 -1.3240198e-13 0
10.004233 -2.5974947e-13 0
10.004233 -3.8691905e-13 0
10.004233 -3.1073836e-13 0
10.004233 3.8964045e-13 0
10.004233 2.5976721e-13 0
10.004233 2.6234463e-13 0
10.004233 -2.6297781e-15 0
10.004233 -1.1886548e-17 0
10.004233 1.0016339e-16 0
10.004233 -2.5704014e-13 0
10.004233 2.4803018e-13 0
10.004233 -1.1479779e-07 0
10.004232 -5.1674254e-05 0
10.001896 0.22936881 0
6.528861 8.1518698 0
-6.4281192 7.0391866 0
-10.005303 0.20110721 0
-10.007673 -4.1705274e-05 0
-10.007672 -6.4338755e-08 0
-10.007672 1.9197482e-09 0
-10.007672 2.6572047e-13 0
-10.007672 -1.3266616e-13 0
-10.007672 -5.3235759e-13 0
-10.007672 2.8085586e-15 0
-10.007672 -2.680026e-13 0
-10.007672 -5.3120613e-13 0
-10.007672 -7.9437065e-13 0
-10.007672 -1.1119243e-12 0
-10.007672 7.9668259e-13 0
-10.007672 5.3121492e-13 0