# vtk DataFile Version 4.0
hesp visualization file
ASCII
DATASET UNSTRUCTURED_GRID
POINTS 32 double
1.8916248 0.74974099 4
1.0950166 2.2023702 4
1.0950166 3.40994 4
1.8916248 4.8625692 4
2.5709543 -0.8554568 4
2.7997227 1.7891669 4
2.7997227 3.8231434 4
2.5709543 6.467767 4
6.462828 -2.6451983 4
4.3994959 0.27289672 4
4.3994959 5.3394135 4
6.462828 8.2575085 4
8.9289546 -3.1604441 4
9.4741286 1.4761104 4
9.4741286 4.1361998 4
8.9289546 8.7727544 4
12.683356 -3.1604441 4
12.138182 1.4761104 4
12.138182 4.1361998 4
12.683356 8.7727544 4
15.149482 -2.6451983 4
17.212814 0.27289672 4
17.212814 5.3394135 4
15.149482 8.2575085 4
19.041356 -0.8554568 4
18.812588 1.7891669 4
18.812588 3.8231434 4
19.041356 6.467767 4
19.720685 0.74974099 4
20.517294 2.2023702 4
20.517294 3.40994 4
19.720685 4.8625692 4
CELLS 0 0
CELL_TYPES 0
POINT_DATA 32
SCALARS m double
LOOKUP_TABLE default
1
1
1
1
1
1
1
1
1
1
1
1
1
1
1
1
1
1
1
1
1
1
1
1
1
1
1
1
1
1
1
1
VECTORS v double
-10.688556 -1.41865 0
-12.028149 -0.3923308 0
-12.028149 0.3923308 0
-10.688556 1.41865 0
-12.468591 -4.6089807 0
-9.56727 -0.10825403 0
-9.56727 0.10825403 0
-12.468591 4.6089807 0
-6.2443094 -8.7274973 0
-8.2900676 -3.1884179 0
-8.2900676 3.1884179 0
-6.2443094 8.7274973 0
-3.0687126 -7.7762739 0
-1.4071859 -0.91977403 0
-1.4071859 0.91977403 0
-3.0687126 7.7762739 0
3.0687126 -7.7762739 0
1.4071859 -0.91977403 0
1.4071859 0.91977403 0
3.0687126 7.7762739 0
6.2443094 -8.7274973 0
8.2900676 -3.1884179 0
8.2900676 3.1884179 0
6.2443094 8.7274973 0
12.468591 -4.6089807 0
9.56727 -0.10825403 0
9.56727 0.10825403 0
12.468591 4.6089807 0
10.688556 -1.41865 0
12.028149 -0.3923308 0
12.028149 0.3923308 0
10.688556 1.41865 0
