# vtk DataFile Version 4.0
hesp visualization file
ASCII
DATASET UNSTRUCTURED_GRID
POINTS 1250 double
32.186124 1.5170869 4
30.192178 2.9733547 4
30.389563 3.3621086 4
30.389759 4.489841 4
30.389759 5.6123027 4
30.389759 6.7347723 4
30.389759 7.8572343 4
30.389759 8.9796964 4
30.389759 10.102158 4
30.389759 11.22462 4
30.389759 12.347083 4
30.389759 13.469545 4
30.389759 14.592007 4
30.389759 15.714469 4
30.389759 16.836931 4
30.389759 17.959393 4
30.389759 19.081855 4
30.389759 20.204317 4
30.389759 21.326779 4
30.389759 22.449241 4
30.389759 23.571703 4
30.389759 24.694172 4
30.389563 25.821909 4
30.192178 26.210658 4
32.186124 27.666926 4
31.36974 -1.3689582 4
31.343157 2.2515484 4
31.513812 3.3721728 4
30.93721 4.4897288 4
30.936999 5.6123155 4
30.936999 6.7347723 4
30.936999 7.8572343 4
30.936999 8.9796964 4
30.936999 10.102158 4
30.936999 11.22462 4
30.936999 12.347083 4
30.936999 13.469545 4
30.936999 14.592007 4
30.936999 15.714469 4
30.936999 16.836931 4
30.936999 17.959393 4
30.936999 19.081855 4
30.936999 20.204317 4
30.936999 21.326779 4
30.936999 22.449241 4
30.936999 23.571703 4
30.93721 24.694284 4
31.513812 25.811836 4
31.343157 26.932465 4
31.36974 30.552971 4
31.05863 1.2294735 4
31.724799 2.9655407 4
31.436462 4.3543536 4
31.718659 4.4910699 4
31.716655 5.6123049 4
31.716655 6.7347723 4
31.716655 7.8572343 4
31.716655 8.9796964 4
31.716655 10.102158 4
31.716655 11.22462 4
31.716655 12.347083 4
31.716655 13.469545 4
31.716655 14.592007 4
31.716655 15.714469 4
31.716655 16.836931 4
31.716655 17.959393 4
31.716655 19.081855 4
31.716655 20.204317 4
31.716655 21.326779 4
31.716655 22.449241 4
31.716655 23.571704 4
31.71866 24.692943 4
31.43647 24.829659 4
31.724791 26.21848 4
31.05863 27.95454 4
31.798586 -0.23063637 4
32.530849 1.1364442 4
32.26448 3.3952426 4
32.263589 4.4898657 4
32.263597 5.6123121 4
32.263597 6.7347723 4
32.263597 7.8572343 4
32.263597 8.9796964 4
32.263597 10.102158 4
32.263597 11.22462 4
32.263597 12.347083 4
32.263597 13.469545 4
32.263597 14.592007 4
32.263597 15.714469 4
32.263597 16.836931 4
32.263597 17.959393 4
32.263597 19.081855 4
32.263597 20.204317 4
32.263597 21.326779 4
32.263597 22.449241 4
32.263597 23.571703 4
32.263589 24.694147 4
32.264482 25.788748 4
32.530849 28.047569 4
31.798586 29.41465 4
33.564134 2.2931107 4
31.591691 2.5720901 4
33.040909 3.3442209 4
33.043599 4.4898258 4
33.043605 5.6123086 4
33.043605 6.7347723 4
33.043605 7.8572343 4
33.043605 8.9796964 4
33.043605 10.102158 4
33.043605 11.22462 4
33.043605 12.347083 4
33.043605 13.469545 4
33.043605 14.592007 4
33.043605 15.714469 4
33.043605 16.836931 4
33.043605 17.959393 4
33.043605 19.081855 4
33.043605 20.204317 4
33.043605 21.326779 4
33.043605 22.449241 4
33.043605 23.571703 4
33.043599 24.694188 4
33.040907 25.839812 4
31.591691 26.611923 4
33.564134 26.890903 4
31.760116 0.88867144 4
33.873696 1.9248041 4
33.5902 3.376286 4
33.590078 4.4898576 4
33.590078 5.6123106 4
33.590078 6.7347723 4
33.590078 7.8572343 4
33.590078 8.9796964 4
33.590078 10.102158 4
33.590078 11.22462 4
33.590078 12.347083 4
33.590078 13.469545 4
33.590078 14.592007 4
33.590078 15.714469 4
33.590078 16.836931 4
33.590078 17.959393 4
33.590078 19.081855 4
33.590078 20.204317 4
33.590078 21.326779 4
33.590078 22.449241 4
33.590078 23.571703 4
33.590078 24.694155 4
33.5902 25.807719 4
33.873695 27.259207 4
31.760116 28.295342 4
33.034803 1.9306377 4
35.044547 2.8893906 4
34.370409 3.360542 4
34.370492 4.4898413 4
34.370492 5.61231 4
34.370492 6.7347723 4
34.370492 7.8572343 4
34.370492 8.9796964 4
34.370492 10.102158 4
34.370492 11.22462 4
34.370492 12.347083 4
34.370492 13.469545 4
34.370492 14.592007 4
34.370492 15.714469 4
34.370492 16.836931 4
34.370492 17.959393 4
34.370492 19.081855 4
34.370492 20.204317 4
34.370492 21.326779 4
34.370492 22.449241 4
34.370492 23.571703 4
34.370492 24.694172 4
34.370409 25.823478 4
35.044547 26.294623 4
33.034803 27.253376 4
35.762055 -0.21571492 4
34.660598 2.4444582 4
34.916461 3.3681229 4
34.916521 4.4898475 4
34.916521 5.6123103 4
34.916521 6.7347723 4
34.916521 7.8572343 4
34.916521 8.9796964 4
34.916521 10.102158 4
34.916521 11.22462 4
34.916521 12.347083 4
34.916521 13.469545 4
34.916521 14.592007 4
34.916521 15.714469 4
34.916521 16.836931 4
34.916521 17.959393 4
34.916521 19.081855 4
34.916521 20.204317 4
34.916521 21.326779 4
34.916521 22.449241 4
34.916521 23.571703 4
34.916521 24.694166 4
34.916461 25.815889 4
34.660599 26.739556 4
35.762055 29.399728 4
34.67886 1.8281173 4
35.139066 2.4467827 4
35.697108 3.3666428 4
35.697197 4.4898482 4
35.697197 5.6123102 4
35.697197 6.7347723 4
35.697197 7.8572343 4
35.697197 8.9796964 4
35.697197 10.102158 4
35.697197 11.22462 4
35.697197 12.347083 4
35.697197 13.469545 4
35.697197 14.592007 4
35.697197 15.714469 4
35.697197 16.836931 4
35.697197 17.959393 4
35.697197 19.081855 4
35.697197 20.204317 4
35.697197 21.326779 4
35.697197 22.449241 4
35.697197 23.571703 4
35.697197 24.694165 4
35.697108 25.817371 4
35.139066 26.737231 4
34.67886 27.355896 4
35.324464 1.1239473 4
36.382676 1.8971744 4
36.242993 3.367442 4
36.242992 4.4898481 4
36.242992 5.6123102 4
36.242992 6.7347723 4
36.242992 7.8572343 4
36.242992 8.9796964 4
36.242992 10.102158 4
36.242992 11.22462 4
36.242992 12.347083 4
36.242992 13.469545 4
36.242992 14.592007 4
36.242992 15.714469 4
36.242992 16.836931 4
36.242992 17.959393 4
36.242992 19.081855 4
36.242992 20.204317 4
36.242992 21.326779 4
36.242992 22.449241 4
36.242992 23.571703 4
36.242992 24.694165 4
36.242993 25.816571 4
36.382676 27.286839 4
35.324464 28.060066 4
36.447076 1.1240161 4
36.862896 2.445561 4
37.023082 3.3673536 4
37.023084 4.4898482 4
37.023084 5.6123102 4
37.023084 6.7347723 4
37.023084 7.8572343 4
37.023084 8.9796964 4
37.023084 10.102158 4
37.023084 11.22462 4
37.023084 12.347083 4
37.023084 13.469545 4
37.023084 14.592007 4
37.023084 15.714469 4
37.023084 16.836931 4
37.023084 17.959393 4
37.023084 19.081855 4
37.023084 20.204317 4
37.023084 21.326779 4
37.023084 22.449241 4
37.023084 23.571703 4
37.023084 24.694165 4
37.023082 25.81666 4
36.862896 26.738452 4
36.447076 28.059997 4
37.569544 1.1240003 4
37.569535 2.2449339 4
37.569518 3.3673862 4
37.569518 4.4898482 4
37.569518 5.6123102 4
37.569518 6.7347723 4
37.569518 7.8572343 4
37.569518 8.9796964 4
37.569518 10.102158 4
37.569518 11.22462 4
37.569518 12.347083 4
37.569518 13.469545 4
37.569518 14.592007 4
37.569518 15.714469 4
37.569518 16.836931 4
37.569518 17.959393 4
37.569518 19.081855 4
37.569518 20.204317 4
37.569518 21.326779 4
37.569518 22.449241 4
37.569518 23.571703 4
37.569518 24.694165 4
37.569518 25.816627 4
37.569535 26.939079 4
37.569544 28.060013 4
38.692007 1.124 4
38.692007 2.2449324 4
38.692007 3.3673861 4
38.692007 4.4898482 4
38.692007 5.6123102 4
38.692007 6.7347723 4
38.692007 7.8572343 4
38.692007 8.9796964 4
38.692007 10.102158 4
38.692007 11.22462 4
38.692007 12.347083 4
38.692007 13.469545 4
38.692007 14.592007 4
38.692007 15.714469 4
38.692007 16.836931 4
38.692007 17.959393 4
38.692007 19.081855 4
38.692007 20.204317 4
38.692007 21.326779 4
38.692007 22.449241 4
38.692007 23.571703 4
38.692007 24.694165 4
38.692007 25.816627 4
38.692007 26.939081 4
38.692007 28.060013 4
39.814469 1.124 4
39.814469 2.2449324 4
39.814469 3.3673861 4
39.814469 4.4898482 4
39.814469 5.6123102 4
39.814469 6.7347723 4
39.814469 7.8572343 4
39.814469 8.9796964 4
39.814469 10.102158 4
39.814469 11.22462 4
39.814469 12.347083 4
39.814469 13.469545 4
39.814469 14.592007 4
39.814469 15.714469 4
39.814469 16.836931 4
39.814469 17.959393 4
39.814469 19.081855 4
39.814469 20.204317 4
39.814469 21.326779 4
39.814469 22.449241 4
39.814469 23.571703 4
39.814469 24.694165 4
39.814469 25.816627 4
39.814469 26.939081 4
39.814469 28.060013 4
40.936931 1.124 4
40.936931 2.2449324 4
40.936931 3.3673861 4
40.936931 4.4898482 4
40.936931 5.6123102 4
40.936931 6.7347723 4
40.936931 7.8572343 4
40.936931 8.9796964 4
40.936931 10.102158 4
40.936931 11.22462 4
40.936931 12.347083 4
40.936931 13.469545 4
40.936931 14.592007 4
40.936931 15.714469 4
40.936931 16.836931 4
40.936931 17.959393 4
40.936931 19.081855 4
40.936931 20.204317 4
40.936931 21.326779 4
40.936931 22.449241 4
40.936931 23.571703 4
40.936931 24.694165 4
40.936931 25.816627 4
40.936931 26.939081 4
40.936931 28.060013 4
42.059393 1.124 4
42.059393 2.2449324 4
42.059393 3.3673861 4
42.059393 4.4898482 4
42.059393 5.6123102 4
42.059393 6.7347723 4
42.059393 7.8572343 4
42.059393 8.9796964 4
42.059393 10.102158 4
42.059393 11.22462 4
42.059393 12.347083 4
42.059393 13.469545 4
42.059393 14.592007 4
42.059393 15.714469 4
42.059393 16.836931 4
42.059393 17.959393 4
42.059393 19.081855 4
42.059393 20.204317 4
42.059393 21.326779 4
42.059393 22.449241 4
42.059393 23.571703 4
42.059393 24.694165 4
42.059393 25.816627 4
42.059393 26.939081 4
42.059393 28.060013 4
43.181855 1.124 4
43.181855 2.2449324 4
43.181855 3.3673861 4
43.181855 4.4898482 4
43.181855 5.6123102 4
43.181855 6.7347723 4
43.181855 7.8572343 4
43.181855 8.9796964 4
43.181855 10.102158 4
43.181855 11.22462 4
43.181855 12.347083 4
43.181855 13.469545 4
43.181855 14.592007 4
43.181855 15.714469 4
43.181855 16.836931 4
43.181855 17.959393 4
43.181855 19.081855 4
43.181855 20.204317 4
43.181855 21.326779 4
43.181855 22.449241 4
43.181855 23.571703 4
43.181855 24.694165 4
43.181855 25.816627 4
43.181855 26.939081 4
43.181855 28.060013 4
44.304317 1.124 4
44.304317 2.2449324 4
44.304317 3.3673861 4
44.304317 4.4898482 4
44.304317 5.6123102 4
44.304317 6.7347723 4
44.304317 7.8572343 4
44.304317 8.9796964 4
44.304317 10.102158 4
44.304317 11.22462 4
44.304317 12.347083 4
44.304317 13.469545 4
44.304317 14.592007 4
44.304317 15.714469 4
44.304317 16.836931 4
44.304317 17.959393 4
44.304317 19.081855 4
44.304317 20.204317 4
44.304317 21.326779 4
44.304317 22.449241 4
44.304317 23.571703 4
44.304317 24.694165 4
44.304317 25.816627 4
44.304317 26.939081 4
44.304317 28.060013 4
45.426779 1.124 4
45.426779 2.2449324 4
[...]
POINT_DATA 1250
SCALARS m double
LOOKUP_TABLE default
1
1
1
1
1
1
1
1
1
1
1
1
1
1
1
1
1
1
1
1
1
1
1
1
1
1
1
1
1
1
1
1
1
1
1
1
1
1
1
1
1
1
1
1
1
1
1
1
1
1
1
1
1
1
1
1
1
1
1
1
1
1
1
1
1
1
1
1
1
1
1
1
1
1
1
1
1
1
1
1
1
1
1
1
1
1
1
1
1
1
1
1
1
1
1
1
1
1
1
1
1
1
1
1
1
1
1
1
1
1
1
1
1
1
1
1
1
1
1
1
1
1
1
1
1
1
1
1
1
1
1
1
1
1
1
1
1
1
1
1
1
1
1
1
1
1
1
1
1
1
1
1
1
1
1
1
1
1
1
1
1
1
1
1
1
1
1
1
1
1
1
1
1
1
1
1
1
1
1
1
1
1
1
1
1
1
1
1
1
1
1
1
1
1
1
1
1
1
1
1
1
1
1
1
1
1
1
1
1
1
1
1
1
1
1
1
1
1
1
1
1
1
1
1
1
1
1
1
1
1
1
1
1
1
1
1
1
1
1
1
1
1
1
1
1
1
1
1
1
1
1
1
1
1
1
1
1
1
1
1
1
1
1
1
1
1
1
1
1
1
1
1
1
1
1
1
1
1
1
1
1
1
1
1
1
1
1
1
1
1
1
1
1
1
1
1
1
1
1
1
1
1
1
1
1
1
1
1
1
1
1
1
1
1
1
1
1
1
1
1
1
1
1
1
1
1
1
1
1
1
1
1
1
1
1
1
1
1
1
1
1
1
1
1
1
1
1
1
1
1
1
1
1
1
1
1
1
1
1
1
1
1
1
1
1
1
1
1
1
1
1
1
1
1
1
1
1
1
1
1
1
1
1
1
1
1
1
1
1
1
1
1
1
1
1
1
1
1
1
1
1
1
1
1
1
1
1
1
1
1
1
1
1
1
1
1
1
1
1
1
1
1
1
1
1
1
1
1
1
1
1
1
1
1
1
1
1
1
1
1
1
1
1
1
1
1
1
1
1
1
1
1
1
1
1
1
1
1
1
1
1
1
1
1
1
1
1
1
1
1
1
1
1
1
1
1
1
1
1
1
1
1
1
1
1
1
1
1
1
1
1
1
1
1
1
1
1
1
1
1
1
1
1
1
1
1
1
1
1
1
1
1
1
1
1
1
1
1
1
1
1
1
1
1
1
1
1
1
1
1
1
1
1
1
1
1
1
1
1
1
1
1
1
1
1
1
1
1
1
1
1
1
1
1
1
1
1
1
1
1
1
1
1
1
1
1
1
1
1
1
1
1
1
1
1
1
1
1
1
1
1
1
1
1
1
1
1
1
1
1
1
1
1
1
1
1
1
1
1
1
1
1
1
1
1
1
1
1
1
1
1
1
1
1
1
1
1
1
1
1
1
1
1
1
1
1
1
1
1
1
1
1
1
1
1
1
1
1
1
1
1
1
1
1
1
1
1
1
1
1
1
1
1
1
1
1
1
1
1
1
1
1
1
1
1
1
1
1
1
1
1
1
1
1
1
1
1
1
1
1
1
1
1
1
1
1
1
1
1
1
1
1
1
1
1
1
1
1
1
1
1
1
1
1
1
1
1
1
1
1
1
1
1
1
1
1
1
1
1
1
1
1
1
1
1
1
1
1
1
1
1
1
1
1
1
1
1
1
1
1
1
1
1
1
1
1
1
1
1
1
1
1
1
1
1
1
1
1
1
1
1
1
1
1
1
1
1
1
1
1
1
1
1
1
1
1
1
1
1
1
1
1
1
1
1
1
1
1
1
1
1
1
1
1
1
1
1
1
1
1
1
1
1
1
1
1
1
1
1
1
1
1
1
1
1
1
1
1
1
1
1
1
1
1
1
1
1
1
1
1
1
1
1
1
1
1
1
1
1
1
1
1
1
1
1
1
1
1
1
1
1
1
1
1
1
1
1
1
1
1
1
1
1
1
1
1
1
1
1
1
1
1
1
1
1
1
1
1
1
1
1
1
1
1
1
1
1
1
1
1
1
1
1
1
1
1
1
1
1
1
1
1
1
1
1
1
1
1
1
1
1
1
1
1
1
1
1
1
1
1
1
1
1
1
1
1
1
1
1
1
1
1
1
1
1
1
1
1
1
1
1
1
1
1
1
1
1
1
1
1
1
1
1
1
1
1
1
1
1
1
1
1
1
1
1
1
1
1
1
1
1
1
1
1
1
1
1
1
1
1
1
1
1
1
1
1
1
1
1
1
1
1
1
1
1
1
1
1
1
1
1
1
1
1
1
1
1
1
1
1
1
1
1
1
1
1
1
1
1
1
1
1
1
1
1
1
1
1
1
1
1
1
1
1
1
1
1
1
1
1
1
1
1
1
1
1
1
1
1
1
1
1
1
1
1
1
1
1
1
1
1
1
1
1
1
1
1
1
1
1
1
1
1
1
1
1
1
1
1
1
1
1
1
1
1
1
1
1
1
1
1
1
1
1
1
1
1
1
1
1
1
1
1
1
1
1
1
1
1
1
1
1
1
1
1
1
1
1
1
1
1
1
1
1
1
1
1
1
1
1
1
1
1
1
1
1
1
1
1
1
1
1
1
1
1
1
1
1
1
1
1
1
1
1
1
1
1
1
1
1
1
1
1
1
1
1
1
1
1
1
1
1
1
1
1
1
1
1
1
1
1
1
1
1
1
1
1
1
1
1
1
1
1
1
1
1
1
1
1
1
1
1
1
1
1
1
1
1
1
1
1
1
1
1
1
1
1
1
1
1
1
1
1
1
1
1
1
1
1
1
1
1
1
1
1
1
1
1
1
1
1
1
1
1
1
1
1
1
1
1
VECTORS v double
9.7570061 1.6400576 0
-6.6340853 7.3515908 0
9.9837949 -0.13088597 0
10.002946 -0.00010785974 0
10.002889 -0.00022941429 0
10.002888 1.5420093e-08 0
10.002888 -8.9864562e-12 0
10.002888 4.21525e-09 0
10.002888 -5.1734106e-14 0
10.002888 -6.1491436e-13 0
10.002888 4.1371758e-09 0
10.002888 4.7619337e-08 0
10.002888 4.141785e-06 0
10.002888 -4.8042697e-08 0
10.002888 2.0240509e-12 0
10.002888 1.1154448e-12 0
10.002888 -4.5456956e-15 0
10.002888 -5.4249551e-17 0
10.002888 -5.9831488e-13 0
10.002888 -3.298047e-10 0
10.002889 5.0795704e-06 0
10.002946 8.4692877e-05 0
9.9837939 0.13097102 0
-6.6340802 -7.3515978 0
9.7570064 -1.6400573 0
-2.6309945 -13.726785 0
8.0663012 -2.8906624 0
10.058281 0.020398908 0
-9.9799088 -0.011975821 0
-10.002074 0.00013484034 0
-10.002083 -1.4848864e-07 0
-10.002083 1.0244863e-11 0
-10.002083 -1.0961756e-09 0
-10.002083 2.4505469e-14 0
-10.002083 -6.1167571e-13 0
-10.002083 -1.0648497e-09 0
-10.002083 -2.4670319e-08 0
-10.002083 -2.7284897e-06 0
-10.002083 2.4937706e-08 0
-10.002083 6.1459746e-13 0
-10.002083 1.2556407e-12 0
-10.002083 -4.4248354e-15 0
-10.002083 -2.8128019e-16 0
-10.002083 -1.533778e-12 0
-10.002083 1.3828879e-07 0
-10.002074 2.3877979e-05 0
-9.9799102 0.011970838 0
10.058278 -0.020456725 0
8.0662973 2.8906695 0
-2.6309946 13.726785 0
-0.47670865 -5.2191605 0
0.61168206 -3.3240825 0
-5.5944894 16.000545 0
10.47794 0.41460023 0
10.004048 -0.00018924955 0
10.004051 -2.372057e-07 0
10.004051 -5.2231638e-12 0
10.004051 8.9366983e-10 0
10.004051 2.9984609e-15 0
10.004051 -3.7468543e-13 0
10.004051 8.6844376e-10 0
10.004051 2.1800718e-08 0
10.004051 2.5107507e-06 0
10.004051 -2.2009168e-08 0
10.004051 1.0121157e-12 0
10.004051 7.4266606e-13 0
10.004051 -4.2963598e-15 0
10.004051 -4.0978004e-16 0
10.004051 -1.8702577e-12 0
10.004051 2.4583167e-07 0
10.004048 4.0505955e-05 0
10.478115 -0.41478243 0
-5.5945276 -16.000383 0
0.61155258 3.3242011 0
-0.47671118 5.2191587 0
-0.34418299 -3.8303227 0
-6.9666725 -10.511873 0
-9.9712274 0.7956965 0
-10.002692 0.00035434961 0
-10.001926 4.4996824e-05 0
-10.001919 -2.3746937e-09 0
-10.001919 7.3233866e-12 0
-10.001919 -5.967665e-13 0
-10.001919 1.9108213e-15 0
-10.001919 -3.9395455e-13 0
-10.001919 -6.5382311e-13 0
-10.001919 -3.3526302e-09 0
-10.001919 -7.3203481e-07 0
-10.001919 3.4051977e-09 0
-10.001919 6.522157e-13 0
-10.001919 7.777594e-13 0
-10.001919 -4.1655535e-15 0
-10.001919 -2.7972245e-16 0
-10.001919 -1.2862574e-12 0
-10.001919 -4.2904646e-10 0
-10.001926 1.2155328e-05 0
-10.002692 -0.00036527313 0
-9.9711775 -0.79636308 0
-6.9666768 10.511872 0
-0.34418289 3.8303227 0
5.4035723 5.7818802 0
-9.681802 2.2691946 0
9.9489573 -0.73476432 0
10.005047 -0.00067979418 0
10.005213 -5.4005368e-05 0
10.005216 2.0681118e-09 0
10.005216 -3.0196122e-12 0
10.005216 -4.5990456e-13 0
10.005216 4.4027519e-15 0
10.005216 -2.3313996e-13 0
10.005216 -4.3426348e-13 0
10.005216 2.7419948e-09 0
10.005216 6.2992313e-07 0
10.005216 -2.7733479e-09 0
10.005216 4.9706665e-13 0
10.005216 4.6243569e-13 0
10.005216 -4.0366796e-15 0
10.005216 -4.686081e-18 0
10.005216 -5.4326357e-13 0
10.005216 -5.8680476e-11 0
10.005213 3.249269e-06 0
10.005047 0.00069037218 0
9.9489068 0.7353906 0
-9.6818009 -2.2692061 0
5.4035752 -5.7818879 0
-9.9739391 -1.0254225 0
-8.213994 -5.1428362 0
-9.998614 0.24929192 0
-10.002442 0.00025539396 0
-10.002445 9.9339858e-06 0
-10.002445 -1.7502937e-10 0
-10.002445 1.9746051e-12 0
-10.002445 -5.3843152e-13 0
-10.002445 4.3817176e-15 0
-10.002445 -2.7214896e-13 0
-10.002445 -5.7132945e-13 0
-10.002445 -1.6073494e-13 0
-10.002445 -6.583682e-08 0
-10.002445 7.5098392e-13 0
-10.002445 5.1867783e-13 0
-10.002445 5.4050842e-13 0
-10.002445 -3.9075567e-15 0
-10.002445 -1.6830374e-17 0
-10.002445 -1.4733084e-13 0
-10.002445 -5.3932281e-11 0
-10.002445 -7.5046244e-08 0
-10.002442 -0.00026057675 0
-9.9986084 -0.24953682 0
-8.2140171 5.1428032 0
-9.9739391 1.0254225 0
-9.0257161 4.1290401 0
8.0789582 5.1919804 0
10.004381 -0.22325812 0
10.006081 -0.00023392657 0
10.00608 -8.4052302e-06 0
10.00608 1.1852843e-10 0
10.00608 -5.3699408e-13 0
10.00608 -4.3848348e-13 0
10.00608 4.2418921e-15 0
10.00608 -2.2204314e-13 0
10.00608 -4.336606e-13 0
10.00608 -6.602921e-13 0
10.00608 5.3779082e-08 0
10.00608 -3.6801824e-13 0
10.00608 4.4090065e-13 0
10.00608 4.4055513e-13 0
10.00608 -3.7773584e-15 0
10.00608 -1.6830074e-17 0
10.00608 1.4977121e-15 0
10.00608 2.0275065e-11 0
10.00608 4.0771193e-08 0
10.006081 0.0002385817 0
10.004375 0.22347512 0
8.0789591 -5.1919788 0
-9.0257146 -4.1290244 0
4.8370523 -9.9978265 0
7.1432176 6.3311241 0
-10.00488 -0.0021704609 0
-10.003448 -2.8023713e-05 0
-10.003446 6.6271933e-07 0
-10.003446 2.3046129e-11 0
-10.003446 3.2912169e-13 0
-10.003446 -1.3159322e-13 0
-10.003446 4.0966699e-15 0
-10.003446 -6.848073e-14 0
-10.003446 -1.325176e-13 0
-10.003446 -3.5959518e-13 0
-10.003446 1.0594466e-11 0
-10.003446 2.6444642e-14 0
-10.003446 1.2750977e-13 0
-10.003446 1.3355294e-13 0
-10.003446 -3.6480454e-15 0
-10.003446 -1.6409104e-17 0
-10.003446 -1.326721e-15 0
-10.003446 -1.4835421e-11 0
-10.003446 -2.1521425e-08 0
-10.003448 2.6988336e-05 0
-10.00488 0.002129284 0
7.143239 -6.3310974 0
4.8370523 9.9978264 0
-5.8394308 6.1949412 0
-9.7946547 2.4668757 0
10.003399 -0.02575869 0
10.006432 -3.983484e-06 0
10.006437 -5.3335677e-07 0
10.006437 2.6231394e-12 0
10.006437 -7.8685335e-14 0
10.006437 -1.7270168e-13 0
10.006437 3.9497685e-15 0
10.006437 -8.8917811e-14 0
10.006437 -1.7109715e-13 0
10.006437 -2.6120211e-13 0
10.006437 -3.1408762e-13 0
10.006437 2.4845483e-13 0
10.006437 1.7110078e-13 0
10.006437 1.7454988e-13 0
10.006437 -3.5180374e-15 0
10.006437 -1.4210815e-17 0
10.006437 5.8752831e-16 0
10.006437 -2.3664929e-12 0
10.006437 9.0644226e-09 0
10.006432 4.865704e-06 0
10.003399 0.025793188 0
-9.794655 -2.4668752 0
-5.8394308 -6.1949413 0
-10.002536 0.0045617101 0
-5.4468286 -9.3648521 0
-10.00454 0.0015394508 0
-10.004586 -3.1717615e-06 0
-10.004584 1.8044894e-09 0
-10.004584 2.079423e-12 0
-10.004584 -4.4938053e-15 0
-10.004584 -1.1833727e-13 0
-10.004584 3.8032858e-15 0
-10.004584 -6.1635397e-14 0
-10.004584 -1.1677688e-13 0
-10.004584 -1.7230503e-13 0
-10.004584 -2.3534675e-13 0
-10.004584 1.7454826e-13 0
-10.004584 1.1678765e-13 0
-10.004584 1.2010803e-13 0
-10.004584 -3.3885505e-15 0
-10.004584 -1.3258255e-17 0
-10.004584 -3.0072118e-16 0
-10.004584 -5.2369871e-13 0
-10.004584 -1.6073143e-09 0
-10.004586 3.0969631e-06 0
-10.00454 -0.0015419624 0
-5.4468306 9.3648506 0
-10.002536 -0.0045617102 0
-10.000238 0.0063953438 0
5.192598 7.3888674 0
10.004614 -0.0012727694 0
10.004658 1.8089492e-06 0
10.004659 -6.6682635e-10 0
10.004659 1.6142201e-13 0
10.004659 -6.7589973e-15 0
10.004659 -2.8432027e-14 0
10.004659 3.6575446e-15 0
10.004659 -1.6588143e-14 0
10.004659 -2.6930426e-14 0
10.004659 -3.7265383e-14 0
10.004659 -5.6884381e-14 0
10.004659 4.0182534e-14 0
10.004659 2.6940785e-14 0
10.004659 3.0133633e-14 0
10.004659 -3.259368e-15 0
10.004659 -1.2069959e-17 0
10.004659 1.4564387e-16 0
10.004659 -8.9467949e-14 0
10.004659 4.1718034e-10 0
10.004658 -1.7478526e-06 0
10.004614 0.0012748229 0
5.1926001 -7.3888663 0
-10.000238 -0.0063953433 0
-10.000029 0.0052458775 0
-10.001162 0.00027068968 0
-10.005214 -3.2086132e-06 0
-10.005205 -1.9442424e-07 0
-10.005205 5.0967408e-11 0
-10.005205 -5.1178831e-14 0
-10.005205 2.4305318e-17 0
-10.005205 -1.4944084e-15 0
-10.005205 3.5182607e-15 0
-10.005205 -3.0273041e-15 0
-10.005205 -4.8786729e-17 0
-10.005205 2.9365574e-15 0
-10.005205 -3.0065637e-15 0
-10.005205 -1.2992776e-16 0
-10.005205 5.8786136e-17 0
-10.005205 3.1293446e-15 0
-10.005205 -3.135476e-15 0
-10.005205 -1.1060171e-17 0
-10.005205 1.0421488e-16 0
-10.005205 5.5777559e-14 0
-10.005205 -5.1323152e-11 0
-10.005205 1.9442994e-07 0
-10.005214 3.2090331e-06 0
-10.001162 -0.0002706898 0
-10.000029 -0.0052458775 0
-10.000001 0.0052216568 0
-10.000005 2.1684749e-05 0
-10.000008 7.2601192e-08 0
-10.000008 -1.8315221e-10 0
-10.000008 8.4144161e-13 0
-10.000008 8.7736959e-16 0
-10.000008 -4.8701419e-18 0
-10.000008 -1.4889183e-15 0
-10.000008 3.4994977e-15 0
-10.000008 -3.0116808e-15 0
-10.000008 -5.0509358e-17 0
-10.000008 2.9177155e-15 0
-10.000008 -2.9948581e-15 0
-10.000008 -1.2584861e-16 0
-10.000008 5.991861e-17 0
-10.000008 3.1145464e-15 0
-10.000008 -3.1188223e-15 0
-10.000008 -1.0764874e-17 0
-10.000008 1.2064363e-16 0
-10.000008 1.9092097e-15 0
-10.000008 -8.4453101e-13 0
-10.000008 1.8311404e-10 0
-10.000008 -7.2600992e-08 0
-10.000005 -2.1684749e-05 0
-10.000001 -0.0052216568 0
-10 0.0052209803 0
-10 2.0602474e-05 0
-10 -1.5075445e-07 0
-10 -2.0547694e-10 0
-10 7.9193316e-13 0
-10 8.7326662e-16 0
-10 -4.8927276e-18 0
-10 -1.4882745e-15 0
-10 3.4993688e-15 0
-10 -3.0122638e-15 0
-10 -5.0554625e-17 0
-10 2.9177513e-15 0
-10 -2.9949117e-15 0
-10 -1.2574635e-16 0
-10 5.9963245e-17 0
-10 3.1145165e-15 0
-10 -3.118672e-15 0
-10 -1.0764471e-17 0
-10 1.205822e-16 0
-10 1.9084962e-15 0
-10 -7.9381911e-13 0
-10 2.0547602e-10 0
-10 1.5075445e-07 0
-10 -2.0602474e-05 0
-10 -0.0052209803 0
-10 0.0052209803 0
-10 2.0602475e-05 0
-10 -1.5075407e-07 0
-10 -2.0542094e-10 0
-10 7.9193749e-13 0
-10 8.7334599e-16 0
-10 -4.8482855e-18 0
-10 -1.4881415e-15 0
-10 3.49904e-15 0
-10 -3.0123221e-15 0
-10 -5.0711511e-17 0
-10 2.9177519e-15 0
-10 -2.9947856e-15 0
-10 -1.2609457e-16 0
-10 6.0193129e-17 0
-10 3.1143833e-15 0
-10 -3.1186234e-15 0
-10 -1.0778844e-17 0
-10 1.2057379e-16 0
-10 1.9086085e-15 0
-10 -7.9382354e-13 0
-10 2.0542003e-10 0
-10 1.5075407e-07 0
-10 -2.0602475e-05 0
-10 -0.0052209803 0
-10 0.0052209803 0
-10 2.0602475e-05 0
-10 -1.5075407e-07 0
-10 -2.0542094e-10 0
-10 7.9193731e-13 0
-10 8.7338021e-16 0
-10 -4.7678063e-18 0
-10 -1.4884936e-15 0
-10 3.499183e-15 0
-10 -3.0119741e-15 0
-10 -5.0507809e-17 0
-10 2.9175572e-15 0
-10 -2.9941873e-15 0
-10 -1.2605453e-16 0
-10 6.0378282e-17 0
-10 3.1143667e-15 0
-10 -3.1184993e-15 0
-10 -1.0766951e-17 0
-10 1.2052604e-16 0
-10 1.9086123e-15 0
-10 -7.9382356e-13 0
-10 2.0542003e-10 0
-10 1.5075407e-07 0
-10 -2.0602475e-05 0
-10 -0.0052209803 0
-10 0.0052209803 0
-10 2.0602475e-05 0
-10 -1.5075407e-07 0
-10 -2.0542094e-10 0
-10 7.9193735e-13 0
-10 8.7320691e-16 0
-10 -4.8571003e-18 0
-10 -1.4888223e-15 0
-10 3.4993493e-15 0
-10 -3.0114557e-15 0
-10 -5.0446281e-17 0
-10 2.917652e-15 0
-10 -2.9944844e-15 0
-10 -1.26031e-16 0
-10 5.9800655e-17 0
-10 3.1143594e-15 0
-10 -3.1185942e-15 0
-10 -1.0764257e-17 0
-10 1.2049592e-16 0
-10 1.9087138e-15 0
-10 -7.938232e-13 0
-10 2.0542003e-10 0
-10 1.5075407e-07 0
-10 -2.0602475e-05 0
-10 -0.0052209803 0
-10 0.0052209803 0
-10 2.0602475e-05 0
-10 -1.5075407e-07 0
-10 -2.0542094e-10 0
-10 7.9193742e-13 0
-10 8.7320793e-16 0
-10 -4.870855e-18 0
-10 -1.4880787e-15 0
-10 3.4993562e-15 0
-10 -3.0122304e-15 0
-10 -5.0461197e-17 0
-10 2.9178892e-15 0
-10 -2.9945333e-15 0
-10 -1.2598991e-16 0
-10 5.9813262e-17 0
-10 3.1143786e-15 0
-10 -3.1185984e-15 0
-10 -1.0764222e-17 0
-10 1.2050008e-16 0
-10 1.9086941e-15 0
-10 -7.9382327e-13 0
-10 2.0542003e-10 0
-10 1.5075407e-07 0
-10 -2.0602475e-05 0
-10 -0.0052209803 0
-10 0.0052209803 0
-10 2.0602475e-05 0
-10 -1.5075407e-07 0
-10 -2.0542094e-10 0
-10 7.9193743e-13 0
-10 8.7321296e-16 0
-10 -4.8709661e-18 0
-10 -1.488078e-15 0
-10 3.4993563e-15 0
-10 -3.0122311e-15 0
-10 -5.0460111e-17 0
-10 2.917888e-15 0
-10 -2.9947896e-15 0
-10 -1.2598944e-16 0
-10 5.9814485e-17 0
-10 3.1143785e-15 0
-10 -3.1185977e-15 0
-10 -1.0764257e-17 0
-10 1.2049939e-16 0
-10 1.9086947e-15 0
-10 -7.9382326e-13 0
-10 2.0542003e-10 0
-10 1.5075407e-07 0
-10 -2.0602475e-05 0
-10 -0.0052209803 0
-10 0.0052209803 0
-10 2.0602475e-05 0
-10 -1.5075407e-07 0
-10 -2.0542094e-10 0
-10 7.9193711e-13 0
-10 8.7343996e-16 0
-10 -4.7788759e-18 0
-10 -1.4884334e-15 0
-10 3.4993004e-15 0
-10 -3.0121977e-15 0
-10 -5.0661443e-17 0
-10 2.9177231e-15 0
-10 -2.9946052e-15 0
-10 -1.2617295e-16 0
-10 6.0105163e-17 0
-10 3.1141739e-15 0
-10 -3.1184457e-15 0
-10 -1.078157e-17 0
-10 1.2053158e-16 0
-10 1.9083641e-15 0
-10 -7.9382328e-13 0
-10 2.0542003e-10 0
-10 1.5075407e-07 0
-10 -2.0602475e-05 0
-10 -0.0052209803 0
-10 0.0052209803 0
-10 2.0602475e-05 0
-10 -1.5075407e-07 0
-10 -2.0542094e-10 0
-10 7.9193722e-13 0
-10 8.7363226e-16 0
-10 -4.8442302e-18 0
-10 -1.4890784e-15 0
-10 3.499692e-15 0
-10 -3.0123192e-15 0
-10 -5.0539558e-17 0
-10 2.9179764e-15 0
-10 -2.9951916e-15 0
-10 -1.2541931e-16 0
-10 6.0233296e-17 0
-10 3.1143495e-15 0
-10 -3.1186929e-15 0
-10 -1.0769948e-17 0
-10 1.2069315e-16 0
-10 1.907527e-15 0
-10 -7.9382344e-13 0
-10 2.0542003e-10 0
-10 1.5075407e-07 0
-10 -2.0602475e-05 0
-10 -0.0052209803 0
-10 0.0052209803 0
-10 2.0602474e-05 0
-10 -1.5075407e-07 0
-10 -2.0542085e-10 0
-10 7.9193207e-13 0
-10 8.7338219e-16 0
-10 -4.7878095e-18 0
-10 -1.4883052e-15 0
-10 3.4993559e-15 0
-10 -3.0120661e-15 0
-10 -5.0386558e-17 0
-10 2.9180847e-15 0
-10 -2.9945832e-15 0
-10 -1.262633e-16 0
-10 6.0045973e-17 0
-10 3.1143237e-15 0
-10 -3.1190124e-15 0
-10 -1.0771502e-17 0
-10 1.2106971e-16 0
-10 1.9080938e-15 0
-10 -7.9382338e-13 0
-10 2.0541994e-10 0
-10 1.5075407e-07 0
-10 -2.0602474e-05 0
-10 -0.0052209803 0
-9.9999999 0.0052209831 0
-9.9999998 2.0602423e-05 0
-9.9999998 -1.5075677e-07 0
-9.9999998 -2.0541788e-10 0
-9.9999998 7.9194494e-13 0
-9.9999998 8.7322252e-16 0
-9.9999998 -4.6554991e-18 0
-9.9999998 -1.4875117e-15 0
-9.9999998 3.4992789e-15 0
-9.9999998 -3.0117479e-15 0
-9.9999998 -4.9805384e-17 0
-9.9999998 2.9188695e-15 0
-9.9999998 -2.9928321e-15 0
-9.9999998 -1.2762624e-16 0
-9.9999998 5.9488749e-17 0
-9.9999998 3.1135692e-15 0
-9.9999998 -3.1189546e-15 0
-9.9999998 -1.0771005e-17 0
-9.9999998 1.2100807e-16 0
-9.9999998 1.9086986e-15 0
-9.9999998 -7.9383863e-13 0
-9.9999998 2.0541691e-10 0
-9.9999998 1.5075677e-07 0
-9.9999998 -2.0602423e-05 0
-9.9999999 -0.0052209831 0
-10.000022 0.0052213913 0
-10.000021 2.0651629e-05 0
-10.000021 -1.5084695e-07 0
-10.000021 -2.0574024e-10 0
-10.000021 7.9248581e-13 0
-10.000021 8.7480496e-16 0
-10.000021 -4.9990437e-18 0
-10.000021 -1.4899171e-15 0
-10.000021 3.4995141e-15 0
-10.000021 -3.0126542e-15 0
-10.000021 -5.1525408e-17 0
-10.000021 2.9165814e-15 0
-10.000021 -2.9975284e-15 0
-10.000021 -1.2442208e-16 0
-10.000021 6.1313046e-17 0
-10.000021 3.11563e-15 0
-10.000021 -3.1195566e-15 0
-10.000021 -1.0771692e-17 0
-10.000021 1.2143415e-16 0
-10.000021 1.9060892e-15 0
-10.000021 -7.944333e-13 0
-10.000021 2.0573921e-10 0
-10.000021 1.5084695e-07 0
-10.000021 -2.0651629e-05 0
-10.000022 -0.0052213913 0
-10.004933 0.0049329975 0
-10.005221 2.1806799e-05 0
-10.005221 -1.4621813e-07 0
-10.005221 -2.1736293e-10 0
-10.005221 7.7273473e-13 0
-10.005221 9.0646458e-16 0
-10.005221 -5.3751498e-18 0
-10.005221 -1.4544125e-15 0
-10.005221 3.4105256e-15 0
-10.005221 -2.9369806e-15 0
-10.005221 -5.2340789e-17 0
-10.005221 2.8398175e-15 0
-10.005221 -2.9261524e-15 0
-10.005221 -1.1847666e-16 0
-10.005221 6.2364954e-17 0
-10.005221 3.0385256e-15 0
-10.005221 -3.0409067e-15 0
-10.005221 -1.0771585e-17 0
-10.005221 1.1921358e-16 0
-10.005221 1.8122107e-15 0
-10.005221 -7.7448603e-13 0
-10.005221 2.1736108e-10 0
-10.005221 1.4621813e-07 0
-10.005221 -2.1806799e-05 0
-10.004933 -0.0049329975 0
-9.7570061 1.6400576 0
6.6340859 7.35159 0
-9.9837947 -0.13092426 0
-10.002946 -8.165286e-05 0
-10.002889 0.00022039135 0
-10.002888 -1.49517e-08 0
-10.002888 9.7393665e-12 0
-10.002888 -4.5080062e-09 0
-10.002888 1.0692776e-13 0
-10.002888 -6.5536176e-13 0
-10.002888 -4.4278745e-09 0
-10.002888 -4.8234518e-08 0
-10.002888 -4.1536303e-06 0
-10.002888 4.8662641e-08 0
-10.002888 4.627057e-13 0
-10.002888 1.506798e-12 0
-10.002888 -4.5449146e-15 0
-10.002888 -5.4719347e-17 0
-10.002888 -5.9847454e-13 0
-10.002888 -3.2856484e-10 0
-10.002889 5.0710524e-06 0
-10.002946 0.00010813488 0
-9.983794 0.13093553 0
6.6340793 -7.3515996 0
-9.7570064 -1.6400574 0
2.6309945 -13.726785 0
-8.066302 -2.8906614 0
-10.058281 0.020402207 0
9.9799087 -0.012003441 0
10.002074 -0.00019919047 0
10.002083 -1.2692006e-07 0
10.002083 -9.947718e-12 0
10.002083 3.9535768e-09 0
10.002083 -8.4293421e-14 0
10.002083 -6.3306579e-13 0
10.002083 3.895365e-09 0
10.002083 3.0966154e-08 0
10.002083 2.8735586e-06 0
10.002083 -3.1243818e-08 0
10.002083 1.632922e-12 0
10.002083 1.0877962e-12 0
10.002083 -4.4257582e-15 0
10.002083 -2.8118567e-16 0
10.002083 -1.53353e-12 0
10.002083 1.3828899e-07 0
10.002074 2.3883574e-05 0
9.9799102 0.011949605 0
-10.058278 -0.02045347 0
-8.066296 2.8906709 0
2.6309946 13.726785 0
0.47670876 -5.2191604 0
-0.61168049 -3.3240837 0
5.594475 16.000558 0
-10.477927 0.41461525 0
-10.004048 0.00012521455 0
-10.004051 -2.5563513e-07 0
-10.004051 1.1205782e-11 0
-10.004051 -3.6030427e-09 0
-10.004051 4.5880328e-14 0
-10.004051 -4.6491555e-13 0
-10.004051 -3.5531317e-09 0
-10.004051 -2.7831385e-08 0
-10.004051 -2.654453e-06 0
-10.004051 2.8044761e-08 0
-10.004051 6.7689319e-13 0
-10.004051 1.0064495e-12 0
-10.004051 -4.295666e-15 0
-10.004051 -4.0909033e-16 0
-10.004051 -1.8703348e-12 0
-10.004051 2.4583136e-07 0
-10.004048 4.0500788e-05 0
-10.478119 -0.4147653 0
5.5945369 -16.000378 0
-0.6115576 3.3241974 0
0.476711 5.2191588 0
0.344183 -3.8303227 0
6.9666725 -10.511873 0
9.9712275 0.79569651 0
10.002692 0.00033211775 0
10.001926 -8.1498414e-05 0
10.001919 3.8653577e-09 0
10.001919 -6.2211262e-12 0
10.001919 8.1243416e-10 0
10.001919 -6.8928039e-15 0
10.001919 -3.4957083e-13 0
10.001919 8.0653556e-10 0
10.001919 5.5996885e-09 0