# vtk DataFile Version 4.0
hesp visualization file
ASCII
DATASET UNSTRUCTURED_GRID
POINTS 32 double
6.8581781 1.1145464 4
6.8222177 2.2391957 4
6.8222177 3.3731145 4
6.8581781 4.4977639 4
8.0503474 0.97440675 4
7.9604957 2.1754693 4
7.9604957 3.4368409 4
8.0503474 4.6379035 4
9.4634363 1.5836204 4
9.0777473 2.4064331 4
9.0777473 3.2058771 4
9.4634363 4.0286898 4
10.355284 0.67126125 4
10.25756 1.9729906 4
10.25756 3.6393196 4
10.355284 4.941049 4
11.257026 0.67126125 4
11.35475 1.9729906 4
11.35475 3.6393196 4
11.257026 4.941049 4
12.148874 1.5836204 4
12.534563 2.4064331 4
12.534563 3.2058771 4
12.148874 4.0286898 4
13.561963 0.97440675 4
13.651815 2.1754693 4
13.651815 3.4368409 4
13.561963 4.6379035 4
14.754132 1.1145464 4
14.790093 2.2391957 4
14.790093 3.3731145 4
14.754132 4.4977639 4
CELLS 0 0
CELL_TYPES 0
POINT_DATA 32
SCALARS m double
LOOKUP_TABLE default
1
1
1
1
1
1
1
1
1
1
1
1
1
1
1
1
1
1
1
1
1
1
1
1
1
1
1
1
1
1
1
1
VECTORS v double
-10.055175 -0.33674776 0
-10.586433 -0.1332259 0
-10.586433 0.1332259 0
-10.055175 0.33674776 0
-9.132195 -2.4896761 0
-10.226999 -1.1572328 0
-10.226999 1.1572328 0
-9.132195 2.4896761 0
-1.0725125 -4.6624296 0
-12.934546 -0.86310376 0
-12.934546 0.86310376 0
-1.0725125 4.6624296 0
1.3439378 -8.0808839 0
-7.2420536 -4.1005051 0
-7.2420536 4.1005051 0
1.3439378 8.0808839 0
-1.3439378 -8.0808839 0
7.2420536 -4.1005051 0
7.2420536 4.1005051 0
-1.3439378 8.0808839 0
1.0725125 -4.6624296 0
12.934546 -0.86310376 0
12.934546 0.86310376 0
1.0725125 4.6624296 0
9.132195 -2.4896761 0
10.226999 -1.1572328 0
10.226999 1.1572328 0
9.132195 2.4896761 0
10.055175 -0.33674776 0
10.586433 -0.1332259 0
10.586433 0.1332259 0
10.055175 0.33674776 0
