# vtk DataFile Version 4.0
hesp visualization file
ASCII
DATASET UNSTRUCTURED_GRID
POINTS 1250 double
34.51694 4.8530501 4
30.853207 0.7736313 4
34.048701 5.3131755 4
30.802827 2.957048 4
29.69882 5.1468304 4
30.718826 7.3300899 4
31.337594 7.4685638 4
31.810716 9.038788 4
30.331459 10.200322 4
30.225317 11.223143 4
29.312648 12.822461 4
31.586783 14.344793 4
32.254686 15.819732 4
31.552393 14.836043 4
30.224153 16.86329 4
30.223792 17.956982 4
30.614939 18.945299 4
30.104212 19.493526 4
31.551966 19.905237 4
30.450896 19.90233 4
32.801538 22.611304 4
33.109424 25.85357 4
35.82316 23.887503 4
31.004177 28.015254 4
33.267114 26.887567 4
30.231713 -8.3695776 4
33.596206 2.0049339 4
31.237274 -1.0601738 4
33.213952 5.1789689 4
34.83218 5.670979 4
30.241656 7.4460462 4
31.099284 6.8125141 4
31.14626 10.199489 4
31.747805 10.173291 4
31.102341 11.226464 4
31.919227 11.85683 4
29.736736 12.834212 4
30.085154 14.810235 4
29.646087 16.417931 4
31.10144 16.8109 4
31.102186 17.96386 4
32.01999 18.645375 4
30.718575 18.247128 4
29.881026 21.575735 4
30.57775 22.139255 4
31.298005 23.702545 4
30.489802 23.72418 4
31.243019 30.241175 4
33.600661 27.167822 4
30.231713 37.553591 4
31.834739 -0.64458533 4
33.240764 4.3786975 4
29.98388 6.3478594 4
32.440238 5.6108005 4
32.076386 4.460689 4
29.632782 8.9254217 4
32.322408 11.856287 4
32.885609 9.2174138 4
32.181497 10.036175 4
31.755553 11.122379 4
30.655236 12.623153 4
33.015838 14.102443 4
32.930906 16.271816 4
32.830768 15.01854 4
31.554293 16.860802 4
31.922252 17.615202 4
31.955997 19.103151 4
31.963981 21.905686 4
32.267199 18.211862 4
31.111707 19.135386 4
32.334742 23.694931 4
34.596168 24.493699 4
31.545659 24.540236 4
33.555777 25.427855 4
31.836013 29.825734 4
31.570613 -2.1307868 4
31.19726 -4.2599773 4
31.653114 3.182999 4
33.768557 3.8271475 4
28.706621 5.900649 4
31.294404 9.027058 4
33.316107 8.7386734 4
31.058415 9.8274287 4
32.935965 12.148363 4
33.079088 11.22133 4
32.553277 11.426465 4
30.859214 13.140207 4
29.958958 14.08864 4
30.861461 16.043886 4
31.936632 17.141247 4
33.079948 17.963786 4
34.086031 18.618168 4
31.465937 19.274093 4
33.095158 20.263605 4
30.206623 23.598465 4
32.018031 24.471562 4
34.078981 25.693683 4
31.592792 25.982699 4
31.197263 33.443991 4
31.570614 31.314801 4
32.370661 6.7190624 4
31.777163 4.1821154 4
31.36241 0.81587329 4
36.263087 3.8597793 4
32.349567 7.4594165 4
31.148622 5.4895178 4
31.892142 8.144801 4
32.968602 9.5303406 4
32.394477 10.236739 4
33.095975 13.343855 4
32.299306 13.289619 4
32.991078 14.719019 4
32.677091 15.681803 4
32.529244 16.659338 4
32.757647 16.567064 4
33.140818 17.112199 4
32.456914 19.982556 4
32.140906 20.531343 4
31.64304 22.547909 4
31.527467 21.23942 4
31.179224 20.798239 4
34.15419 22.222205 4
31.294382 28.305702 4
31.846691 24.864919 4
34.968842 24.272873 4
30.715688 -2.0544319 4
32.332266 -3.1562212 4
36.249996 4.4379882 4
30.834821 7.895056 4
33.498761 7.1707979 4
31.634527 6.6621526 4
33.571296 8.3042902 4
33.51882 9.467761 4
33.081165 10.127009 4
35.143986 10.330831 4
33.170808 11.96905 4
33.722418 12.363955 4
33.959534 12.569863 4
34.151002 15.292423 4
34.151487 16.440297 4
33.829453 16.724952 4
33.368083 19.065511 4
32.656702 19.750542 4
32.421347 21.101499 4
31.087928 21.795772 4
33.372286 22.050674 4
30.648634 22.536052 4
34.778567 22.815885 4
32.332514 32.340303 4
30.715685 31.238447 4
31.278889 1.9223243 4
36.531697 3.4007495 4
30.458386 1.5573055 4
33.948534 5.7035012 4
30.82211 5.2126955 4
34.314864 7.1337514 4
35.682991 7.426004 4
33.323392 9.0950796 4
33.554427 10.089821 4
33.550647 11.226169 4
34.552028 12.483472 4
33.353133 13.939181 4
33.43589 14.592177 4
34.006364 14.546978 4
34.210548 16.913004 4
33.548978 17.957139 4
33.505558 19.972755 4
34.035173 20.047179 4
34.602646 21.605169 4
32.441496 21.927596 4
31.323758 22.293323 4
33.997232 23.951638 4
30.360337 27.535403 4
36.527639 25.783031 4
31.337856 27.263713 4
38.228952 -5.3145712 4
33.529261 2.7064834 4
35.983428 1.8887737 4
33.750447 6.0422385 4
35.24362 5.9738841 4
34.446382 6.3076773 4
34.026733 8.6325225 4
35.979575 8.9731044 4
34.415861 10.11247 4
34.406945 11.224268 4
34.466988 11.969569 4
34.60044 12.984573 4
36.207677 13.590218 4
35.663221 16.545165 4
35.235505 16.78485 4
34.407083 17.959397 4
34.415038 19.073564 4
36.074741 19.807124 4
35.879679 20.42319 4
33.448019 22.365871 4
36.831839 23.529487 4
33.156252 22.542742 4
35.981088 27.29374 4
33.588686 26.576882 4
38.228952 34.498584 4
32.664761 2.3506261 4
32.29762 1.7016827 4
37.0448 1.5703973 4
36.211534 6.0092595 4
36.669742 6.0381722 4
37.123414 6.8189491 4
34.676963 8.1838458 4
35.962073 11.123505 4
35.659298 10.224497 4
35.431397 11.581484 4
35.555369 12.510373 4
35.710891 13.52328 4
34.448642 15.817562 4
34.862273 15.212036 4
35.529505 16.836253 4
35.528393 17.959658 4
35.460123 18.942033 4
35.997777 17.903533 4
34.621073 21.203301 4
34.868681 21.764257 4
34.398287 22.103269 4
37.27191 23.933329 4
37.176461 27.63933 4
32.297744 27.481946 4
32.04391 26.080174 4
32.198502 0.89984365 4
34.27964 -2.3889458 4
35.742743 2.4946076 4
35.91191 4.4351717 4
36.264742 7.651556 4
35.187718 8.7639726 4
36.757041 7.9268262 4
35.417878 9.8227187 4
36.362099 10.156693 4
36.403389 11.222558 4
36.378692 12.230669 4
36.019309 13.037329 4
34.885181 14.042357 4
35.770354 15.991645 4
36.406155 16.836523 4
36.587157 17.742288 4
35.843085 18.898541 4
35.558985 19.178873 4
36.786648 21.142975 4
37.003568 23.332168 4
36.227971 21.599957 4
36.021615 24.627917 4
35.745065 26.684603 4
34.279641 31.572956 4
32.178005 28.232819 4
30.660211 0.2667018 4
35.329599 2.1045928 4
37.114011 5.354597 4
34.611366 2.878741 4
38.606939 5.2737594 4
36.538871 7.1663904 4
36.122576 8.766408 4
35.820325 9.998218 4
36.856959 10.103737 4
36.856949 11.224618 4
36.857162 12.361813 4
36.894543 13.657662 4
37.558904 15.1771 4
36.83122 15.94921 4
36.856953 16.837004 4
36.856829 17.959331 4
36.857003 19.080525 4
36.08853 19.461031 4
36.152436 20.386985 4
36.574274 21.855329 4
37.254271 24.508612 4
34.730022 26.563032 4
35.620515 24.283896 4
35.304945 27.073272 4
30.675593 28.983131 4
32.809848 -0.1000568 4
35.65917 0.31949821 4
37.477625 8.0740799 4
35.380528 3.6828052 4
35.235016 6.5204304 4
37.502101 6.3382309 4
37.289928 7.3420669 4
37.061057 8.9792597 4
37.73311 10.101152 4
37.733582 11.224621 4
37.73337 12.337033 4
37.373397 13.197204 4
37.632939 13.783901 4
37.333333 16.183292 4
37.73358 16.836845 4
37.733582 17.959392 4
37.733223 19.082702 4
37.061051 20.204482 4
37.284651 21.831093 4
38.52607 22.940531 4
37.073256 22.024743 4
35.367455 25.51531 4
37.531504 21.152792 4
35.66349 28.879749 4
32.809876 29.284106 4
33.592107 1.1375806 4
34.493353 1.0245601 4
38.738945 2.7930068 4
39.271363 5.7526354 4
36.405607 5.8066643 4
37.341447 6.9235064 4
38.532718 8.3574243 4
38.183865 8.9804254 4
38.183797 10.102152 4
38.183796 11.224621 4
38.183797 12.347645 4
38.186181 13.520902 4
37.27311 14.757596 4
38.186277 15.662008 4
38.183796 16.836943 4
38.183796 17.959393 4
38.183797 19.081862 4
38.183864 20.204161 4
38.534084 20.826408 4
37.519499 22.223819 4
37.247066 23.243295 4
38.479824 23.485772 4
38.724663 26.364246 4
34.513107 28.180219 4
33.592129 28.046442 4
34.423044 0.14820909 4
37.845897 2.0660845 4
36.211213 2.4006889 4
36.541785 4.4017798 4
38.163476 5.4243877 4
38.785672 6.0607732 4
38.386184 7.859783 4
39.061209 8.9791835 4
39.061286 10.102163 4
39.061287 11.22462 4
39.061286 12.346715 4
39.058669 13.434861 4
38.503725 14.098566 4
39.058496 15.750076 4
39.061286 16.836922 4
39.061287 17.959393 4
39.061286 19.08185 4
39.061206 20.204459 4
38.386177 21.324224 4
38.9251 22.77495 4
37.837073 23.585141 4
36.542257 24.777191 4
36.21605 26.767883 4
37.838965 27.110408 4
34.423515 29.029575 4
37.191523 0.40950221 4
36.093721 1.5126461 4
36.822997 2.6444862 4
37.749173 4.6162005 4
39.359496 4.2404767 4
39.621265 7.3517598 4
39.510527 7.8571313 4
39.510481 8.9796599 4
39.510481 10.102158 4
39.510481 11.22462 4
39.510481 12.347084 4
39.510485 13.47128 4
40.052373 14.988158 4
39.510488 15.712655 4
39.510481 16.836932 4
39.510481 17.959393 4
39.510481 19.081855 4
39.510481 20.204352 4
39.510522 21.326848 4
39.597464 21.827556 4
38.968307 23.475465 4
37.711324 24.257975 4
36.825121 26.544003 4
36.102352 27.692966 4
37.209216 28.731772 4
37.633032 0.44784082 4
37.465605 2.5313433 4
38.843366 5.710558 4
39.454351 3.5941689 4
40.470552 6.6266098 4
39.715314 6.7342392 4
40.388955 7.8570116 4
40.389015 8.9797202 4
40.389016 10.102158 4
40.389016 11.22462 4
40.389016 12.347082 4
40.38901 13.468407 4
39.722728 14.548902 4
40.389006 15.715609 4
40.389016 16.83693 4
40.389016 17.959393 4
40.389016 19.081855 4
40.389015 20.204294 4
40.388955 21.327031 4
39.71426 22.447038 4
39.826619 24.064107 4
39.373737 25.582317 4
39.21917 24.003095 4
37.30998 26.65227 4
37.621257 28.778177 4
38.081708 1.1278333 4
38.080161 2.2490733 4
41.970463 2.9385284 4
41.697646 5.5720749 4
39.919272 5.5563902 4
40.836883 6.7310005 4
40.837041 7.8574335 4
40.837041 8.9796964 4
40.837041 10.102158 4
40.837041 11.22462 4
40.837041 12.347083 4
40.837042 13.469543 4
40.8381 14.626206 4
40.837041 15.714468 4
40.837041 16.836931 4
40.837041 17.959393 4
40.837041 19.081855 4
40.837041 20.204317 4
40.837041 21.326566 4
40.837127 22.453036 4
40.939382 23.00796 4
41.68555 23.878662 4
41.945388 26.231846 4
38.080334 26.935891 4
38.081714 28.056178 4
39.204323 1.1278355 4
39.205484 2.2487623 4
39.235643 2.6500234 4
40.120748 4.4165751 4
41.037291 5.9140125 4
41.71635 6.7370059 4
41.716471 7.8571048 4
41.716473 8.9796964 4
41.716473 10.102158 4
41.716473 11.22462 4
41.716473 12.347083 4
41.716473 13.469545 4
41.715358 14.56976 4
41.716472 15.714469 4
41.716473 16.836931 4
41.716473 17.959393 4
41.716473 19.081855 4
41.716473 20.204317 4
41.716472 21.326917 4
41.716442 22.44698 4
41.534101 23.399848 4
40.120227 24.764292 4
39.272789 26.502163 4
39.205515 26.935395 4
39.204323 28.056178 4
40.306834 1.1247116 4
40.721292 0.91743843 4
40.326639 3.3670218 4
[...]
POINT_DATA 1250
SCALARS m double
LOOKUP_TABLE default
1
1
1
1
1
1
1
1
1
1
1
1
1
1
1
1
1
1
1
1
1
1
1
1
1
1
1
1
1
1
1
1
1
1
1
1
1
1
1
1
1
1
1
1
1
1
1
1
1
1
1
1
1
1
1
1
1
1
1
1
1
1
1
1
1
1
1
1
1
1
1
1
1
1
1
1
1
1
1
1
1
1
1
1
1
1
1
1
1
1
1
1
1
1
1
1
1
1
1
1
1
1
1
1
1
1
1
1
1
1
1
1
1
1
1
1
1
1
1
1
1
1
1
1
1
1
1
1
1
1
1
1
1
1
1
1
1
1
1
1
1
1
1
1
1
1
1
1
1
1
1
1
1
1
1
1
1
1
1
1
1
1
1
1
1
1
1
1
1
1
1
1
1
1
1
1
1
1
1
1
1
1
1
1
1
1
1
1
1
1
1
1
1
1
1
1
1
1
1
1
1
1
1
1
1
1
1
1
1
1
1
1
1
1
1
1
1
1
1
1
1
1
1
1
1
1
1
1
1
1
1
1
1
1
1
1
1
1
1
1
1
1
1
1
1
1
1
1
1
1
1
1
1
1
1
1
1
1
1
1
1
1
1
1
1
1
1
1
1
1
1
1
1
1
1
1
1
1
1
1
1
1
1
1
1
1
1
1
1
1
1
1
1
1
1
1
1
1
1
1
1
1
1
1
1
1
1
1
1
1
1
1
1
1
1
1
1
1
1
1
1
1
1
1
1
1
1
1
1
1
1
1
1
1
1
1
1
1
1
1
1
1
1
1
1
1
1
1
1
1
1
1
1
1
1
1
1
1
1
1
1
1
1
1
1
1
1
1
1
1
1
1
1
1
1
1
1
1
1
1
1
1
1
1
1
1
1
1
1
1
1
1
1
1
1
1
1
1
1
1
1
1
1
1
1
1
1
1
1
1
1
1
1
1
1
1
1
1
1
1
1
1
1
1
1
1
1
1
1
1
1
1
1
1
1
1
1
1
1
1
1
1
1
1
1
1
1
1
1
1
1
1
1
1
1
1
1
1
1
1
1
1
1
1
1
1
1
1
1
1
1
1
1
1
1
1
1
1
1
1
1
1
1
1
1
1
1
1
1
1
1
1
1
1
1
1
1
1
1
1
1
1
1
1
1
1
1
1
1
1
1
1
1
1
1
1
1
1
1
1
1
1
1
1
1
1
1
1
1
1
1
1
1
1
1
1
1
1
1
1
1
1
1
1
1
1
1
1
1
1
1
1
1
1
1
1
1
1
1
1
1
1
1
1
1
1
1
1
1
1
1
1
1
1
1
1
1
1
1
1
1
1
1
1
1
1
1
1
1
1
1
1
1
1
1
1
1
1
1
1
1
1
1
1
1
1
1
1
1
1
1
1
1
1
1
1
1
1
1
1
1
1
1
1
1
1
1
1
1
1
1
1
1
1
1
1
1
1
1
1
1
1
1
1
1
1
1
1
1
1
1
1
1
1
1
1
1
1
1
1
1
1
1
1
1
1
1
1
1
1
1
1
1
1
1
1
1
1
1
1
1
1
1
1
1
1
1
1
1
1
1
1
1
1
1
1
1
1
1
1
1
1
1
1
1
1
1
1
1
1
1
1
1
1
1
1
1
1
1
1
1
1
1
1
1
1
1
1
1
1
1
1
1
1
1
1
1
1
1
1
1
1
1
1
1
1
1
1
1
1
1
1
1
1
1
1
1
1
1
1
1
1
1
1
1
1
1
1
1
1
1
1
1
1
1
1
1
1
1
1
1
1
1
1
1
1
1
1
1
1
1
1
1
1
1
1
1
1
1
1
1
1
1
1
1
1
1
1
1
1
1
1
1
1
1
1
1
1
1
1
1
1
1
1
1
1
1
1
1
1
1
1
1
1
1
1
1
1
1
1
1
1
1
1
1
1
1
1
1
1
1
1
1
1
1
1
1
1
1
1
1
1
1
1
1
1
1
1
1
1
1
1
1
1
1
1
1
1
1
1
1
1
1
1
1
1
1
1
1
1
1
1
1
1
1
1
1
1
1
1
1
1
1
1
1
1
1
1
1
1
1
1
1
1
1
1
1
1
1
1
1
1
1
1
1
1
1
1
1
1
1
1
1
1
1
1
1
1
1
1
1
1
1
1
1
1
1
1
1
1
1
1
1
1
1
1
1
1
1
1
1
1
1
1
1
1
1
1
1
1
1
1
1
1
1
1
1
1
1
1
1
1
1
1
1
1
1
1
1
1
1
1
1
1
1
1
1
1
1
1
1
1
1
1
1
1
1
1
1
1
1
1
1
1
1
1
1
1
1
1
1
1
1
1
1
1
1
1
1
1
1
1
1
1
1
1
1
1
1
1
1
1
1
1
1
1
1
1
1
1
1
1
1
1
1
1
1
1
1
1
1
1
1
1
1
1
1
1
1
1
1
1
1
1
1
1
1
1
1
1
1
1
1
1
1
1
1
1
1
1
1
1
1
1
1
1
1
1
1
1
1
1
1
1
1
1
1
1
1
1
1
1
1
1
1
1
1
1
1
1
1
1
1
1
1
1
1
1
1
1
1
1
1
1
1
1
1
1
1
1
1
1
1
1
1
1
1
1
1
1
1
1
1
1
1
1
1
1
1
1
1
1
1
1
1
1
1
1
1
1
1
1
1
1
1
1
1
1
1
1
1
1
1
1
1
1
1
1
1
1
1
1
1
1
1
1
1
1
1
1
1
1
1
1
1
1
1
1
1
1
1
1
1
1
1
1
1
1
1
1
1
1
1
1
1
1
1
1
1
1
1
1
1
1
1
1
1
1
1
1
1
1
1
1
1
1
1
1
1
1
VECTORS v double
3.5590289 7.517874 0
4.6736264 -10.063391 0
4.3232807 3.4016772 0
-7.6368822 -7.0266107 0
-3.3920386 -4.5405258 0
-2.2665041 8.7818266 0
-5.7530045 -4.9844693 0
9.8182718 0.14986467 0
-4.9774647 3.1708971 0
-9.9967773 -0.026022533 0
-12.715431 2.1601664 0
8.6540029 5.0694941 0
-2.0889754 6.6725068 0
8.312445 -4.9619938 0
-9.9983323 0.68224226 0
-10.006124 -0.065644946 0
-7.9292108 -9.7635359 0
1.3467908 -7.2157112 0
2.5224911 1.5675082 0
3.1924417 -4.7408761 0
7.3107428 -5.253685 0
7.7360651 8.4450201 0
14.204138 -7.4064664 0
6.4900099 7.7621571 0
-4.2253994 8.7005161 0
2.6823091 -13.726701 0
-9.4762212 3.3014455 0
5.4315681 -9.7837547 0
8.6046731 8.3766378 0
11.922318 -1.4007305 0
-10.956049 1.5716438 0
0.49647931 -4.9330434 0
11.146097 4.3579489 0
-10.211888 3.6142059 0
10.00197 0.049022025 0
9.3202374 -3.7392954 0
-5.7974035 -1.9836443 0
4.6586311 8.8242684 0
-9.2283479 4.0587024 0
9.9911819 -0.68308576 0
9.9770103 0.13533672 0
10.297934 -12.102635 0
-2.6519072 -13.280533 0
-6.4997143 -3.5756787 0
-7.8871014 -2.7152743 0
7.6727744 10.594023 0
12.685214 6.0867252 0
5.4455198 9.7794837 0
-9.456318 -3.4386698 0
2.6823091 13.726701 0
0.18377261 -9.2153336 0
8.2735377 0.88535128 0
-9.8979398 2.3067721 0
2.645734 0.55972518 0
12.877142 1.4308679 0
-11.391857 2.7215543 0
7.5140611 11.606821 0
0.43396202 14.779487 0
4.1801546 -5.6159913 0
0.65205477 -2.0642604 0
-9.8334004 2.0279629 0
9.3463358 3.5626186 0
-2.2311435 12.654083 0
-1.9989426 10.58222 0
-9.8585887 0.66473554 0
1.464239 -9.7460547 0
-10.122647 0.21808646 0
-14.108742 3.522238 0
7.1167207 2.5222283 0
12.333135 -3.9400953 0
10.084237 0.45015936 0
8.2371402 3.6700447 0
-0.39082152 5.4199949 0
6.4827648 0.66756418 0
0.19031512 9.1888856 0
-0.50256793 -3.6809613 0
6.8351147 -10.619229 0
-1.379494 9.2465295 0
5.9762636 -1.0662701 0
-2.5862568 -6.0217059 0
1.1200181 9.9197053 0
2.3656621 -5.6068492 0
-8.5615233 5.2447702 0
-3.8960452 9.4196236 0
-10.027324 -0.11511407 0
-0.17124384 -10.577873 0
-9.8880099 -1.809672 0
-9.8327394 -1.9185672 0
-9.8597942 1.7150378 0
-8.045165 11.410639 0
-10.021322 0.19258992 0
3.4848884 -4.0878997 0
-5.5685641 -0.49169826 0
-10.03679 -0.21776226 0
-12.70701 1.0686924 0
-2.2210027 -2.9031423 0
12.446074 4.4202953 0
-2.0399504 -9.4586992 0
6.8351211 10.619234 0
-0.50256877 3.6809617 0
-11.580165 10.765926 0
3.8900145 -2.6033109 0
9.9170293 -5.8199317 0
9.2840018 -4.9593178 0
-9.494525 -7.5181156 0
1.2381205 -12.062717 0
-9.1359689 -5.3364448 0
2.1027466 8.0496288 0
1.4872418 14.0789 0
2.3299001 14.705558 0
-6.8835234 12.300948 0
7.0411332 -6.7785544 0
8.5481615 1.6923457 0
-4.8669556 1.8012467 0
4.0541001 -10.515934 0
-2.929026 -0.41011035 0
7.4571053 6.4089851 0
-7.9809019 2.2177058 0
-6.3193072 7.2251751 0
-1.8986601 -9.6873784 0
-6.314631 -10.283367 0
-8.1779205 -7.451279 0
8.6076153 4.6040271 0
8.1633215 -4.4267492 0
5.6434776 -6.8116073 0
-1.1166075 -6.3286942 0
-1.9960184 -10.926442 0
2.6856097 -8.5195432 0
-10.402815 10.538793 0
-11.790027 5.070916 0
-3.2640083 -5.6842199 0
13.645154 -4.3400248 0
7.9453582 8.274309 0
-9.9671796 1.1300173 0
13.444459 -7.1176077 0
-5.7427076 -5.5464445 0
2.4926402 -8.8083149 0
2.5792889 -9.3217376 0
3.2727705 -17.52365 0
3.4360332 7.4243036 0
12.316945 -4.652222 0
10.176709 -0.26916916 0
-2.9739756 -6.4631652 0
-7.8317243 2.8942379 0
-9.998569 -5.0876116 0
-8.1227339 4.0327485 0
-12.025851 1.7122539 0
-10.306508 -7.6898768 0
-1.9954301 10.92661 0
-1.1166149 6.32871 0
-5.8252307 -5.1334917 0
1.8803137 3.4305144 0
-6.4012941 -6.8890182 0
6.3838648 6.250977 0
-7.2938227 -8.8554962 0
1.0711717 1.7202566 0
11.494376 0.72550756 0
-6.3563097 8.368205 0
9.9846785 -0.93288364 0
10.032267 0.13794433 0
-1.376094 -0.84230186 0
-9.5308176 3.5394567 0
1.8134741 -5.8912356 0
-1.109584 -12.49224 0
-9.9228998 1.6679213 0
10.006602 -0.17564625 0
-11.332481 7.6664299 0
15.65126 0.2324209 0
1.387551 0.91235882 0
8.14786 0.54182481 0
-2.8685046 -2.7704992 0
3.9696221 -3.9637965 0
-6.8701547 6.5852006 0
1.8692052 -3.4150106 0
-5.0762643 5.2854487 0
4.8370531 -9.9977527 0
-5.9083005 -7.3050807 0
1.7719138 -3.5231145 0
-1.1826443 -2.0042499 0
9.1988478 -3.7397252 0
-8.4556643 2.5327196 0
-5.4301433 6.5288836 0
3.2701837 7.2591302 0
-9.8766018 0.1912334 0
-10.007047 -0.0084520934 0
-7.3199209 -16.008825 0
-2.1411366 9.4571842 0
7.9138643 -0.28458682 0
5.9718002 8.9773403 0
12.020252 -1.4010384 0
-10.005333 0.0011318645 0
-9.9128681 -0.11139307 0
11.965251 -10.264569 0
7.7402956 -0.24578096 0
-10.256017 -0.45084405 0
6.8912294 -0.11723945 0
-3.4977856 -1.5381797 0
1.7529722 3.4967801 0
-5.5795894 8.1775348 0
4.8370532 9.9977527 0
-1.2932929 -6.4960986 0
-9.8574899 -1.5938288 0
-4.1704852 -11.996485 0
-3.425083 9.7901494 0
2.8174153 -2.6250871 0
7.9935419 -0.51404286 0
-9.3636335 2.5795164 0
5.1720076 4.2803483 0
-4.0118162 8.5568025 0
-14.071857 14.410937 0
-9.3088456 3.9709083 0
-4.1575965 5.4350679 0
-5.4491339 7.1517564 0
-6.6750538 -6.3205694 0
-10.012429 -0.034252182 0
-10.008611 -0.011413256 0
-7.856273 -10.906037 0
-1.6756237 -9.8224903 0
-9.993197 -0.94540465 0
-8.0598094 -5.4597773 0
0.6598885 -10.324694 0
4.534952 0.85445932 0
-1.4288152 12.280515 0
-9.8582151 1.5975678 0
-4.2687902 2.9448693 0
1.5030745 -1.2071826 0
-3.9332602 -8.2576446 0
2.7209771 -3.4211721 0
-0.89521588 -0.79189535 0
2.5818464 -9.0861252 0
-7.6522048 13.802649 0
-2.432086 4.9672141 0
-10.148208 -1.9956863 0
9.1771666 1.6562698 0
9.844912 -0.094798896 0
9.2887388 -3.3780955 0
0.97304929 -9.9652605 0
-9.6027286 -3.0896753 0
-9.5727709 3.1997113 0
10.009824 -0.012003292 0
18.002991 -9.402943 0
-5.1469567 -8.433767 0
-15.358816 -4.8221228 0
-1.237676 -6.8727695 0
-6.8731589 9.425026 0
2.246472 9.6239846 0
0.10690777 -0.42650183 0
2.718249 3.3859788 0
-3.9332578 8.257639 0
1.3394243 0.72906367 0
-11.640136 -4.3142166 0
2.8810373 5.3399007 0
2.3198053 2.2821635 0
-7.3161074 -7.2863039 0
10.346797 4.1320239 0
-4.657307 -4.2896645 0
-1.0827027 -7.209612 0
-11.660765 15.458846 0
-10.009821 0.038345785 0
-10.015627 -0.00014837914 0
-10.004558 0.35255166 0
-10.409174 1.6364674 0
5.7914206 -9.4259617 0
-3.4555111 6.2234149 0
-10.015382 0.00096355117 0
-10.041852 -0.020100382 0
-10.000783 -0.031574085 0
6.170352 0.7625322 0
-6.8498919 -0.48223997 0
-5.0864636 3.0112812 0
-0.16749226 7.2562474 0
-6.7224494 8.5239091 0
-6.8241912 2.6352813 0
2.5539338 -5.4495543 0
-11.512853 4.8856648 0
-7.9807916 -7.1903805 0
-9.7686594 -5.4753072 0
9.90821 6.3910644 0
-10.838001 0.1413153 0
-9.7782129 7.2713467 0
-7.1054245 5.0668706 0
-8.6279591 3.0663685 0
-10.001359 -0.0052349351 0
10.00889 -0.03007581 0
10.014321 2.4129569e-05 0
10.008727 -0.29502595 0
0.25640988 -8.5043687 0
9.5471079 0.51874636 0
-3.0387617 11.807946 0
10.013765 -0.0033750389 0
10.014267 -3.1915987e-05 0
10.010201 0.025304852 0
-10.001677 0.0021941722 0
-8.4491531 -3.7663761 0
13.098648 -1.323085 0
-12.076213 -11.091973 0
-10.945066 0.068282482 0
10.078725 -5.0796352 0
-9.7390432 5.5715998 0
-7.9805965 7.1906266 0
-9.9972059 0.097729624 0
-6.2357209 -8.6192163 0
3.6037076 1.284095 0
8.7758844 -4.6064853 0
-6.052928 -0.84542356 0
-5.734397 -7.3618949 0
6.3819729 6.3675829 0
-9.9976677 0.01413439 0
-10.014105 -0.0001506433 0
-10.014226 8.93546e-06 0
-10.014171 0.013121095 0
-9.9366013 1.2362062 0
-9.9336235 1.2620389 0
-9.9336043 -1.2593956 0
-10.014287 0.00030809758 0
-10.014227 -7.7201255e-06 0
-10.014125 0.00014854848 0
-9.9976756 -0.0004724521 0
6.3932098 -6.3671608 0
4.5730578 5.9678015 0
4.4138784 -5.0260801 0
-15.093188 -1.7928754 0
3.53398 -1.4383335 0
-5.9560264 8.8554023 0
-9.9971451 -0.097241264 0
-11.480898 -4.9479638 0
0.77075414 7.9244785 0
-6.5350116 -6.5206043 0
-9.9968354 -0.29234161 0
3.4271071 -10.619921 0
-8.3906698 -0.2371034 0
-10.060299 0.13749215 0
10.014219 -0.016259337 0
10.015615 0.0001456851 0
10.015612 -4.8243355e-06 0
10.015606 -0.010941125 0
9.9477692 -1.0192867 0
-8.5951176 -5.637376 0
9.9446041 1.0471434 0
10.015607 -0.0002663439 0
10.015612 2.778689e-06 0
10.015613 -0.00014738413 0
10.014206 0.0051790437 0
-10.060474 -0.13776867 0
-3.0684551 -9.2353611 0
1.0879239 4.3920111 0
-10.044118 0.25495432 0
-6.4982412 6.4340827 0
0.66960095 -7.9973085 0
-11.478428 4.916131 0
-4.6440559 -7.0700555 0
-8.9495339 -3.6550795 0
-9.6993113 -2.5253911 0
-9.0776329 -5.1369001 0
-4.0293116 -10.262094 0
3.3520416 8.0274286 0
-9.9977391 -0.015048224 0
-10.01367 -0.00086946979 0
-10.013663 9.8076401e-08 0
-10.013663 1.8924285e-07 0
-10.013668 2.153627e-05 0
-10.012944 0.040379144 0
8.161875 5.7812533 0
-10.012486 -0.042994821 0
-10.013666 2.4035583e-05 0
-10.013663 -1.3057215e-07 0
-10.013663 -4.0632764e-09 0
-10.01367 0.000823544 0
-9.9983096 0.01503998 0
3.0602688 -8.1027222 0
0.86103294 5.4611328 0
-9.8464093 -1.9492023 0
-9.6246134 2.5974772 0
-8.8929805 3.7805498 0
-4.4151389 6.5184231 0
-1.5425167 -7.0095977 0
0.13057276 5.2268644 0
-6.3433155 8.7895946 0
-6.5043457 0.097439037 0
3.5577971 8.2234424 0
-9.9747682 -0.025533538 0
10.015601 -0.0051381037 0
10.0167 0.0007074892 0
10.01671 3.500549e-08 0
10.01671 -2.5428747e-08 0
10.016709 -2.1956047e-05 0
10.016549 -0.033961099 0
-9.6290102 -1.3219514 0
10.016077 0.033238156 0
10.01671 -3.0331345e-05 0
10.01671 3.4056675e-08 0
10.01671 -3.5028275e-08 0
10.016699 -0.00067863215 0
10.015633 0.0058358057 0
-10.012654 -0.038629304 0
-8.6412012 5.6013862 0
-7.2726973 -0.21267894 0
2.1418959 3.003332 0
-2.7328184 -5.4845757 0
-1.6899787 7.5732398 0
-10.00411 0.0092943557 0
-9.9933091 0.10608583 0
3.3519504 3.7259648 0
6.1484424 3.4042945 0
-9.9978905 -0.41113253 0
-10.041529 -0.1019336 0
-10.01395 0.0047252556 0
-10.013951 4.2142541e-07 0
-10.013951 -1.1656795e-09 0
-10.013951 2.5228777e-09 0
-10.013952 1.7326637e-07 0
-10.013921 -0.00011379713 0
-9.971184 0.81290792 0
-10.014 -1.9345604e-05 0
-10.013952 -6.2405308e-07 0
-10.013951 -2.1244763e-09 0
-10.013951 1.2081947e-09 0
-10.013951 -8.3335129e-07 0
-10.01393 -0.0050873365 0
-9.9964295 0.095138506 0
-7.5085417 -12.00367 0
5.0582353 1.6093379 0
3.1695504 -3.8510857 0
-9.9928696 -0.083119556 0
-10.00378 -0.0095840137 0
-9.9999126 0.009865446 0
-9.9915395 0.080996237 0
-9.5273129 -9.1292899 0
-10.020185 -0.38707052 0
-10.25705 5.5371351 0
10.015381 0.067758251 0
10.017543 -0.0038580976 0
10.017553 3.047966e-08 0
10.017553 -2.2020523e-09 0
10.017553 1.7022409e-11 0
10.017553 -5.3176751e-07 0
10.017564 4.9186454e-06 0
9.9889363 -0.66181562 0
10.017546 9.251807e-06 0
10.017552 -7.3081039e-07 0
10.017553 2.3228898e-11 0
10.017553 2.1371098e-09 0
10.017553 -4.7495907e-08 0
10.017554 0.0041185802 0
10.01673 -0.068106585 0
7.0434548 -1.0657201 0
-10.023071 0.36359994 0
-9.0073292 9.0099892 0
-9.9898012 -0.059896631 0
-9.9999273 -0.0098596159 0
-10.6484 -0.19063688 0
-6.4278493 -10.227009 0
-10.001382 -0.002439344 0
-9.8472425 1.9458213 0
-7.6805976 -7.1489803 0
-10.01468 0.0039123208 0
-10.014736 -1.3204275e-05 0
-10.014736 1.8046634e-08 0
-10.014736 2.5916729e-10 0
-10.014736 3.6318822e-12 0
-10.014736 4.6058359e-08 0
-10.014737 2.6554352e-06 0
-10.014445 -0.00060752978 0
-10.014733 3.5038093e-06 0
-10.014736 4.4352083e-08 0
-10.014736 5.7051629e-12 0
-10.014736 -2.7694111e-10 0
-10.014736 -1.8453867e-08 0
-10.014736 6.2495829e-06 0
-10.014792 -0.0037613548 0
-9.9994201 -0.36456273 0
-9.8529889 -1.908326 0
-10.000909 0.0026662322 0
-6.6974309 10.505811 0
-10.213856 0.034743159 0
-10.003975 0.0099361582 0
-10.014578 0.051688982 0
-9.9913062 -0.038770198 0
-7.0642721 -7.9294095 0
7.5455562 5.6957492 0
10.017958 -0.0032216924 0
10.017985 7.3034807e-06 0
10.017985 1.2563344e-09 0
10.017985 3.0102218e-13 0
10.017985 7.9446291e-14 0
10.017985 -1.7238165e-12 0
10.017985 7.0778423e-07 0
10.017986 -3.2918741e-06 0
10.017986 7.9281345e-07 0
10.017985 -5.711181e-12 0
10.017985 5.6680589e-13 0
10.017985 -4.5621088e-14 0
10.017985 -1.9573143e-09 0
10.017985 -6.6991578e-08 0
10.017959 0.0030820974 0
10.007957 0.34690803 0
-7.2014817 7.7637131 0
-9.9894639 0.045705598 0
-10.013549 -0.045719656 0
-10.004371 -0.0098867818 0
-10.000019 0.0098175316 0
-10.000465 0.0003489128 0
-10.000251 0.050267736 0
6.9721658 6.1339401 0
-10.002759 0.09252575 0
-10.015684 1.0840073e-05 0
-10.015661 -2.5480569e-07 0
-10.015661 2.2304603e-10 0
-10.015661 -5.2635339e-13 0
-10.015661 -1.1811341e-13 0
-10.015661 -2.9896036e-12 0
-10.015661 2.1414246e-08 0
-10.015661 -3.4030443e-08 0
-10.015661 1.2080083e-08 0
-10.015661 -3.3192655e-12 0
-10.015661 1.3717147e-13 0
-10.015661 1.1454457e-14 0
-10.015661 -2.743413e-10 0
-10.015661 -1.2773239e-07 0
-10.01566 -2.7101476e-05 0
-10.014367 -0.095015104 0
7.1214668 -5.9991824 0
-10.001217 -0.043301537 0
-10.000399 -0.00028960396 0
-10.00002 -0.0098169351 0
-10 0.0098067069 0
-10.000008 -2.6522229e-05 0
-10.000145 0.00011747588 0
-10.069185 0.17251706 0
10.014188 -0.079351361 0
10.015679 -4.3698975e-05 0
10.015681 -4.5514203e-08 0
10.015681 -4.3570106e-12 0
10.015681 4.3182306e-15 0
10.015681 -5.5645884e-14 0
10.015681 -2.5583648e-13 0
10.015681 3.5509256e-12 0
10.015681 -3.9572882e-12 0
10.015681 1.29467e-12 0
10.015681 -1.9553388e-14 0
10.015681 1.036698e-13 0
10.015681 -6.4250534e-16 0
10.015681 7.8923524e-13 0
10.015681 5.0153364e-08 0
10.015679 3.4963514e-05 0
10.014178 0.082436294 0
-10.07244 -0.18655262 0
-10.000135 -0.000116289 0
-10.000008 2.6778262e-05 0
-10 -0.0098066965 0
-9.9999992 0.0098067084 0
-9.9999992 -3.3776048e-05 0
-10.000008 7.35262e-06 0
-10.000192 0.00012024318 0
-10.016248 -5.9994449e-05 0
-10.016219 -4.4424543e-07 0
-10.016218 5.6449907e-09 0
-10.016218 2.8984686e-12 0
-10.016218 8.6344429e-15 0
-10.016218 -5.6470236e-15 0
-10.016218 -1.3470272e-14 0
-10.016218 9.0091155e-14 0
-10.016218 -1.6208632e-13 0
-10.016218 6.6940433e-14 0
-10.016218 -7.3973529e-15 0
-10.016218 5.8287764e-15 0
-10.016218 -9.14808e-15 0
-10.016218 -2.6087351e-12 0
-10.016218 -5.806462e-09 0
-10.016219 4.8818238e-07 0
-10.01625 6.5005976e-05 0
-10.000205 -0.00012535104 0
-10.000008 -7.5797697e-06 0
-9.9999992 3.3776047e-05 0
-9.9999992 -0.0098067084 0
-9.9999742 0.0098094008 0
-9.9999665 -3.3480642e-05 0
-9.9999662 -7.6501011e-07 0
-9.9999699 1.6783953e-06 0
-9.9999772 1.0634236e-06 0
-9.9999784 3.0976742e-09 0
-9.9999784 1.9569107e-12 0
-9.9999784 -6.3228887e-15 0
-9.9999784 6.5269395e-15 0
-9.9999784 -5.6178163e-15 0
-9.9999784 -9.4542104e-17 0
-9.9999784 5.491554e-15 0
-9.9999784 -5.6093062e-15 0
-9.9999784 -2.2918363e-16 0
-9.9999784 1.1428559e-16 0
-9.9999784 5.8091938e-15 0
-9.9999784 -5.8181925e-15 0
-9.9999784 -5.8403225e-17 0
-9.9999784 -1.7528521e-12 0
-9.9999784 -3.2206813e-09 0
-9.9999772 -1.0497649e-06 0
-9.99997 -1.6859621e-06 0
-9.9999662 7.6501205e-07 0
-9.9999665 3.3480642e-05 0
-9.9999742 -0.0098094008 0
-10.009267 0.0092668512 0
-10.009809 -2.5847919e-05 0
-10.009807 -7.5529739e-07 0
-10.009807 1.1935178e-09 0
-10.009807 1.180858e-11 0
-10.009807 -5.372766e-13 0
-10.009807 -9.489605e-16 0
-10.009807 -2.7118093e-15 0
-10.009807 6.3597071e-15 0
-10.009807 -5.4763406e-15 0
-10.009807 -9.7063723e-17 0
-10.009807 5.2960713e-15 0
-10.009807 -5.4553464e-15 0
-10.009807 -2.2156661e-16 0
-10.009807 1.1584426e-16 0
-10.009807 5.6655831e-15 0
-10.009807 -5.6702568e-15 0
-10.009807 -1.9822407e-17 0
-10.009807 1.1848139e-15 0
-10.009807 5.36924e-13 0
-10.009807 -1.1801948e-11 0
-10.009807 -1.1935337e-09 0
-10.009807 7.552974e-07 0
-10.009809 2.5847919e-05 0
-10.009267 -0.0092668512 0
-3.5074859 7.4489347 0
-5.7277141 -5.3472195 0
-7.4315423 -2.046204 0
4.9149693 -2.1582458 0
11.196829 1.4538972 0
0.41465425 -0.18297079 0
5.5657717 -7.6188109 0
1.4868746 2.4279447 0
5.0539675 5.0098502 0
10.013751 0.16105715 0
8.8118182 -4.7665414 0
-6.493834 -4.2741933 0
3.8434279 8.2030427 0
-7.5930378 -1.9284612 0
9.9953948 -0.74344897 0
9.9994719 -0.060801961 0
-10.042635 0.17861491 0
-2.3197101 -9.5937586 0
3.6985087 -11.608623 0
-2.4303871 -3.3518644 0
-7.3286176 -5.0994493 0
-5.7070575 8.4660549 0
-14.439704 -6.8721516 0
-5.2608867 8.4079787 0
-3.4937544 10.064109 0
-2.6823091 -13.726701 0
9.4787499 2.8408559 0
-5.4321341 -9.7942106 0
-5.6976055 -2.2171208 0
-11.106367 7.6224532 0
8.0369489 -4.9108905 0
8.9975844 1.6929852 0
-10.986831 2.9810461 0
-9.9897268 0.16700084 0
-10.001135 -0.17475429 0
-1.6978259 3.2726592 0
-5.0524518 -8.4319288 0
9.6875183 3.6718067 0
10.543748 -4.2667442 0
-10.012114 0.59292562 0
-10.07588 0.099031164 0
-3.1276785 -15.939162 0
2.0788361 -14.525752 0
-2.6390131 -7.594074 0
4.4736121 -4.9256444 0
-8.6208033 0.50674832 0
7.7090423 -6.485149 0
-5.4454166 9.7770835 0
9.4270249 -3.4225513 0
-2.6823091 13.726701 0
-0.18362408 -9.2154437 0
-13.575815 -4.461971 0
-10.091758 7.1839166 0
9.0869623 2.7066232 0
-0.59944405 -8.2803897 0
-2.3187853 10.431844 0
-4.7205684 5.2053978 0
-1.1281645 1.401216 0
6.1910324 -0.69252083 0
-3.8700403 12.326281 0
9.2949112 -3.8072682 0
-6.4250141 -4.7543922 0
13.285776 3.9469705 0
-9.1720982 4.0379661 0
8.9556023 6.5121325 0
-1.5871498 -9.7693163 0
3.2608645 -7.9882237 0
-3.6143875 -7.705258 0
-6.9994436 2.5730207 0
-4.7357503 3.6569512 0
-10.081173 0.43284193 0
-5.8274439 4.503497 0
0.43260677 5.418158 0
-10.859365 -5.2765836 0
-0.19034447 9.1895925 0
0.50256872 -3.6809595 0
-6.8351147 -10.619229 0
11.103251 3.4409135 0
-6.4078166 -1.4681498 0
3.9334583 5.4114466 0
5.8323404 8.6760067 0
-7.0561798 -12.60756 0
4.7219144 6.65453 0
-11.600726 -5.5798424 0
6.7069812 9.6727666 0
-10.93663 -6.5058869 0
-2.8032161 -9.8154468 0
8.5774243 1.9747227 0
9.7905038 -2.2418541 0
-9.9902766 0.43929735 0
10.020052 0.12861412 0