# vtk DataFile Version 4.0
hesp visualization file
ASCII
DATASET UNSTRUCTURED_GRID
POINTS 32 double
1.4729098 1.1229098 4
1.4732876 2.2450001 4
1.4732876 3.3673101 4
1.4729098 4.4894004 4
2.5950001 1.1232876 4
2.5950223 2.2450223 4
2.5950223 3.3672879 4
2.5950001 4.4890226 4
3.7173101 1.1232876 4
3.7172879 2.2450223 4
3.7172879 3.3672879 4
3.7173101 4.4890226 4
4.8394004 1.1229098 4
4.8390226 2.2450001 4
4.8390226 3.3673101 4
4.8394004 4.4894004 4
16.77291 1.1229098 4
16.773288 2.2450001 4
16.773288 3.3673101 4
16.77291 4.4894004 4
17.895 1.1232876 4
17.895022 2.2450223 4
17.895022 3.3672879 4
17.895 4.4890226 4
19.01731 1.1232876 4
19.017288 2.2450223 4
19.017288 3.3672879 4
19.01731 4.4890226 4
20.1394 1.1229098 4
20.139023 2.2450001 4
20.139023 3.3673101 4
20.1394 4.4894004 4
CELLS 0 0
CELL_TYPES 0
POINT_DATA 32
SCALARS m double
LOOKUP_TABLE default
1
1
1
1
1
1
1
1
1
1
1
1
1
1
1
1
1
1
1
1
1
1
1
1
1
1
1
1
1
1
1
1
VECTORS v double
10.025466 0.025465657 0
10.046946 0.0044172011 0
10.046946 -0.0044172011 0
10.025466 -0.025465657 0
10.004417 0.046945569 0
10.005801 0.0058006717 0
10.005801 -0.0058006717 0
10.004417 -0.046945569 0
9.9955829 0.046945573 0
9.9941994 0.0058006732 0
9.9941994 -0.0058006732 0
9.9955829 -0.046945573 0
9.9745345 0.025465672 0
9.9530546 0.0044172062 0
9.9530546 -0.0044172062 0
9.9745345 -0.025465672 0
-9.9745345 0.025465672 0
-9.9530546 0.0044172062 0
-9.9530546 -0.0044172062 0
-9.9745345 -0.025465672 0
-9.9955829 0.046945573 0
-9.9941994 0.0058006732 0
-9.9941994 -0.0058006732 0
-9.9955829 -0.046945573 0
-10.004417 0.046945569 0
-10.005801 0.0058006717 0
-10.005801 -0.0058006717 0
-10.004417 -0.046945569 0
-10.025466 0.025465657 0
-10.046946 0.0044172011 0
-10.046946 -0.0044172011 0
-10.025466 -0.025465657 0
