# vtk DataFile Version 4.0
hesp visualization file
ASCII
DATASET UNSTRUCTURED_GRID
POINTS 1250 double
38.557067 4.2711341 4
33.781827 -5.6618258 4
33.606134 7.2576224 4
29.765324 -0.57110734 4
31.583317 3.5163019 4
32.160183 7.662975 4
29.367254 6.5373967 4
33.747488 5.5431894 4
29.069256 9.6646483 4
32.568743 13.160056 4
25.175091 13.913188 4
32.927161 16.394201 4
32.828947 15.901057 4
33.44204 19.741472 4
31.168406 16.752913 4
30.903725 17.925642 4
27.130904 17.979607 4
30.800757 17.514605 4
30.618604 21.758599 4
29.882956 19.458011 4
34.311481 21.966713 4
34.703957 31.985467 4
34.602896 27.926025 4
33.964288 30.489446 4
29.652697 31.683531 4
31.916469 -17.154666 4
27.80675 2.5486707 4
34.686008 -7.2185852 4
35.781526 5.2372809 4
38.861179 4.7270978 4
29.919814 9.0383046 4
31.29512 2.0891005 4
28.292094 11.262386 4
30.742338 10.638107 4
30.083466 16.432283 4
32.849648 12.521501 4
28.085422 12.278993 4
29.431367 16.928468 4
28.233142 18.196772 4
29.86757 13.632335 4
34.17443 16.94133 4
32.499478 16.808432 4
31.31222 20.972168 4
28.396766 17.560787 4
27.677189 21.818583 4
28.428164 24.096166 4
33.717991 24.439448 4
34.704339 36.396317 4
31.101333 32.916992 4
31.916469 46.338679 4
31.759361 -6.6934006 4
32.817366 3.0408645 4
32.023859 8.6712984 4
33.273539 5.8361718 4
36.803869 4.8025477 4
28.506471 13.646665 4
30.603718 15.313348 4
31.013568 11.371934 4
31.409865 7.0661247 4
29.322981 9.7522636 4
32.480038 10.839766 4
32.602548 12.369813 4
31.300749 15.908214 4
33.100892 15.214165 4
33.814132 18.136984 4
29.905799 18.944064 4
27.30614 18.991915 4
30.378599 21.838424 4
32.030038 19.728295 4
31.213126 21.374196 4
37.676254 22.396996 4
34.768187 28.394152 4
30.360708 28.214056 4
28.944622 26.466337 4
31.787644 35.858151 4
31.419995 -4.4345174 4
35.571728 -11.05561 4
33.048732 5.1840693 4
35.455856 2.8211351 4
27.817187 2.8233585 4
30.089217 10.283267 4
32.52215 5.4751072 4
32.636301 11.806388 4
30.862462 11.047717 4
32.926146 6.652192 4
31.251841 10.568234 4
29.183977 12.30712 4
26.3075 11.460111 4
32.633636 13.839878 4
30.912485 16.146214 4
30.592462 18.320393 4
37.448124 16.089104 4
30.047352 21.720883 4
32.758871 26.752348 4
27.984913 25.681399 4
34.038563 27.818151 4
35.815085 23.206595 4
30.399695 28.550463 4
35.571735 40.239627 4
31.647744 34.364741 4
32.232755 9.839167 4
32.316869 0.85443505 4
34.458246 -3.1805866 4
35.767751 -1.5521466 4
33.833392 9.5815155 4
29.762242 0.30182554 4
32.058836 8.1671028 4
34.537216 14.337624 4
34.271839 14.252843 4
30.968847 14.479255 4
33.479737 16.258637 4
37.26839 16.556627 4
33.871744 14.998933 4
30.724349 16.842363 4
28.992467 16.915154 4
33.558261 17.64898 4
32.699406 17.424867 4
30.782539 22.164308 4
32.129303 25.098973 4
29.62078 19.215132 4
26.010518 12.67856 4
30.727681 19.62761 4
36.680244 29.722829 4
33.695985 26.956488 4
35.530388 23.116252 4
30.289609 -6.1057889 4
31.054793 -10.149728 4
33.41104 0.9153496 4
28.248678 10.582111 4
33.623946 8.6017224 4
30.51715 0.4055042 4
35.708925 7.400627 4
36.770106 5.7246558 4
30.340893 4.9949076 4
35.926699 7.6255174 4
31.779395 13.103528 4
34.323421 13.329842 4
36.991232 7.8499505 4
34.675605 15.380166 4
36.437419 19.545161 4
33.635719 18.52238 4
31.317003 18.065911 4
30.140105 19.381172 4
29.875553 22.537492 4
26.973944 26.674321 4
34.953388 25.265521 4
30.913765 25.967235 4
33.528261 21.783444 4
31.055418 39.333918 4
30.314215 35.287957 4
30.887789 0.060487875 4
34.92016 -1.0843191 4
27.968627 -3.3861563 4
34.26899 2.4923082 4
26.50788 0.0063218611 4
34.140578 8.3278452 4
38.592195 9.2282048 4
31.088809 5.7769986 4
31.947119 9.8249568 4
34.379539 11.271714 4
30.683584 14.574074 4
35.09662 17.966616 4
34.67106 16.711472 4
33.297591 12.247343 4
33.161288 16.846287 4
35.923373 17.13048 4
30.361089 22.485974 4
32.794057 20.172003 4
32.554906 24.993048 4
32.446031 24.405174 4
30.052689 23.464172 4
36.972186 21.246273 4
25.919559 31.836149 4
36.018508 24.556412 4
34.45729 30.616331 4
41.324666 -11.713133 4
31.749003 2.4771079 4
34.501961 -1.0432383 4
30.942995 7.5515253 4
36.943566 5.4870796 4
31.294317 4.7553275 4
35.826018 8.8498088 4
34.665356 15.035571 4
34.195978 12.923381 4
37.117046 8.4701445 4
33.594929 11.219271 4
33.14947 14.765508 4
31.338088 14.014563 4
34.680692 15.816331 4
34.931936 12.741928 4
36.908849 16.625065 4
31.953699 21.113217 4
40.079826 23.923903 4
30.814052 20.313341 4
28.403272 19.01006 4
35.911862 29.407593 4
31.880507 26.976537 4
33.003799 27.284596 4
31.352219 25.617768 4
41.324666 40.897146 4
29.510992 0.79085495 4
29.891674 -0.33387267 4
33.736183 -3.9964229 4
31.104272 11.768857 4
38.091576 6.8892389 4
35.882323 3.2827384 4
32.733601 8.1090023 4
34.431079 14.705532 4
33.355647 15.314675 4
34.662496 14.598803 4
35.621569 14.386787 4
31.388013 15.175527 4
31.898084 18.584176 4
34.045199 16.033564 4
35.333224 22.804854 4
33.662429 12.895252 4
31.387047 20.282968 4
36.465601 21.262601 4
34.74291 18.008293 4
35.105374 20.8153 4
33.401344 23.739589 4
41.874473 21.490224 4
36.351392 35.529014 4
30.334905 27.465287 4
32.159603 27.710943 4
33.474582 -0.34716173 4
31.762394 -7.6724265 4
31.132849 -2.3706822 4
35.425198 4.2174528 4
33.998696 6.9236852 4
34.162405 10.310778 4
35.077431 11.171385 4
32.931819 12.164757 4
39.037683 9.6121298 4
37.631555 9.2656232 4
36.69866 11.320568 4
34.861455 13.325789 4
33.45918 12.438277 4
36.313365 12.378044 4
35.174845 14.675317 4
37.431832 18.765149 4
37.80146 14.882088 4
31.596747 16.650553 4
37.093414 20.622097 4
38.120273 22.971612 4
33.196683 21.138295 4
36.277264 22.1836 4
33.981419 32.454809 4
31.548928 37.289555 4
31.90362 28.273767 4
36.928484 -1.497225 4
36.081308 2.4260399 4
39.804433 4.8935563 4
31.312873 -3.4326464 4
39.135385 3.2308942 4
38.683459 6.5965759 4
36.927653 6.682175 4
29.885047 9.8524322 4
35.360744 4.9430792 4
35.2618 11.450852 4
32.792383 9.5986467 4
38.664734 15.134443 4
35.551172 14.054358 4
35.959346 18.447645 4
36.581259 17.336642 4
35.065953 22.409114 4
37.537793 21.759304 4
33.303359 20.892646 4
32.406369 21.198505 4
37.535943 21.338906 4
38.05155 26.886183 4
31.518004 30.751954 4
33.208495 22.626157 4
34.791235 26.773569 4
28.608285 32.262455 4
29.335941 -4.1462655 4
30.295698 -2.8144742 4
40.092511 9.9520868 4
34.286003 -0.23050142 4
33.380277 3.7845883 4
33.768651 1.6168907 4
32.867069 7.5827801 4
31.148342 9.2632282 4
33.295768 10.774203 4
34.313817 10.572383 4
43.074101 14.454181 4
37.026977 13.121833 4
36.396505 16.378563 4
38.29903 13.910752 4
38.215316 18.006399 4
35.110364 19.577024 4
36.321362 19.274554 4
36.351257 20.242187 4
34.301946 20.942481 4
45.495001 25.522689 4
32.021067 22.144928 4
34.938477 25.766599 4
38.478768 16.872835 4
33.091318 33.777119 4
32.398104 33.76535 4
30.054177 -3.1151005 4
32.68415 -4.2957758 4
40.470692 2.4235921 4
39.015111 6.6432459 4
37.07828 4.2176047 4
39.103207 4.6857227 4
38.542035 10.919802 4
36.472877 6.7048908 4
38.325219 12.719352 4
40.859318 15.984979 4
36.895852 14.456424 4
36.098572 12.318421 4
33.196994 15.858943 4
32.5346 16.422951 4
40.349994 17.155586 4
35.96106 19.345441 4
37.282244 22.883898 4
34.486992 18.333073 4
35.214362 20.42881 4
43.371697 24.573182 4
35.044094 23.117524 4
38.66211 25.995056 4
39.428236 27.311442 4
32.172987 36.791766 4
31.918887 32.471232 4
31.485111 -6.23286 4
31.949498 1.7776568 4
33.528252 -3.3736252 4
34.844841 5.111049 4
35.680487 0.8045642 4
34.358306 12.666974 4
35.133219 10.850654 4
38.209736 6.3619536 4
36.408939 10.188804 4
34.685128 11.320562 4
37.874451 12.582644 4
37.37211 11.646068 4
41.193808 16.384885 4
39.090456 16.438603 4
36.943996 15.914353 4
37.880978 20.530689 4
37.067723 19.014429 4
37.553012 17.996349 4
33.93036 18.669898 4
37.790177 20.918429 4
39.03341 26.172841 4
34.406724 30.15449 4
33.498983 33.686835 4
35.323201 32.538175 4
31.43942 33.232919 4
34.933956 -6.2125172 4
30.561943 -0.63690396 4
37.054656 1.8653493 4
37.717197 2.982112 4
33.622038 1.1407625 4
33.400451 6.2809168 4
34.448935 7.8371834 4
39.722527 7.6227349 4
39.2123 12.208375 4
37.300207 13.972741 4
37.244763 12.513483 4
38.040664 15.42373 4
41.722741 10.362451 4
40.226712 10.196156 4
36.911653 17.529523 4
41.125402 14.053812 4
38.012382 14.472795 4
39.964461 16.313844 4
34.67698 20.290718 4
40.385272 21.674292 4
38.148618 23.327126 4
34.603212 24.425675 4
31.438088 27.252951 4
31.665043 31.32477 4
35.401705 33.61347 4
36.583324 -4.010106 4
36.810886 2.1314592 4
36.886594 8.242578 4
35.30308 -0.048343149 4
37.925301 8.3041932 4
37.857282 4.9861347 4
37.433269 8.8010518 4
40.345355 9.0027761 4
39.446716 7.4498443 4
42.554885 9.1635595 4
41.929167 11.919464 4
36.987057 11.352221 4
34.122669 15.097102 4
38.696565 17.219383 4
41.611953 13.912553 4
43.193347 15.328498 4
38.008643 19.054165 4
39.397104 18.672173 4
39.546591 21.598716 4
39.657933 18.645337 4
38.059566 24.465012 4
35.974948 26.286296 4
39.031506 27.124008 4
35.024391 24.427664 4
36.258772 33.609193 4
38.020884 -4.1473283 4
38.633483 5.3430241 4
36.405765 0.81776102 4
40.988461 5.9778656 4
36.573539 3.4648561 4
37.229489 6.3392483 4
38.436076 7.3508649 4
37.653633 10.984451 4
36.607317 9.5450871 4
39.097181 11.742305 4
38.710224 12.513559 4
36.916381 14.123218 4
35.92732 11.903903 4
39.39608 18.352172 4
38.740051 17.462083 4
38.039722 17.83141 4
38.235726 19.97092 4
40.44356 17.628014 4
41.856024 20.879639 4
33.707245 22.910408 4
38.893226 23.497808 4
44.935139 23.372714 4
40.886153 31.746827 4
36.565209 26.370713 4
32.726522 34.290939 4
34.617621 -1.4494866 4
31.324369 1.3539106 4
35.358844 1.3537328 4
33.323355 4.6116816 4
36.152458 10.206647 4
38.56475 7.9744361 4
41.660455 4.4661628 4
41.912653 4.5640032 4
38.905876 11.550384 4
40.846164 13.773402 4
39.597895 9.2817842 4
38.544363 14.176572 4
44.079086 11.419644 4
37.174192 17.359262 4
39.131032 16.692092 4
38.329169 18.320708 4
43.38608 19.582917 4
39.67063 20.105088 4
40.209331 19.261654 4
36.135315 23.0953 4
38.177607 24.069852 4
35.254898 25.924009 4
36.088196 28.390539 4
37.850789 29.269041 4
33.506747 28.245109 4
33.103353 -2.1629656 4
[...]
POINT_DATA 1250
SCALARS m double
LOOKUP_TABLE default
1
1
1
1
1
1
1
1
1
1
1
1
1
1
1
1
1
1
1
1
1
1
1
1
1
1
1
1
1
1
1
1
1
1
1
1
1
1
1
1
1
1
1
1
1
1
1
1
1
1
1
1
1
1
1
1
1
1
1
1
1
1
1
1
1
1
1
1
1
1
1
1
1
1
1
1
1
1
1
1
1
1
1
1
1
1
1
1
1
1
1
1
1
1
1
1
1
1
1
1
1
1
1
1
1
1
1
1
1
1
1
1
1
1
1
1
1
1
1
1
1
1
1
1
1
1
1
1
1
1
1
1
1
1
1
1
1
1
1
1
1
1
1
1
1
1
1
1
1
1
1
1
1
1
1
1
1
1
1
1
1
1
1
1
1
1
1
1
1
1
1
1
1
1
1
1
1
1
1
1
1
1
1
1
1
1
1
1
1
1
1
1
1
1
1
1
1
1
1
1
1
1
1
1
1
1
1
1
1
1
1
1
1
1
1
1
1
1
1
1
1
1
1
1
1
1
1
1
1
1
1
1
1
1
1
1
1
1
1
1
1
1
1
1
1
1
1
1
1
1
1
1
1
1
1
1
1
1
1
1
1
1
1
1
1
1
1
1
1
1
1
1
1
1
1
1
1
1
1
1
1
1
1
1
1
1
1
1
1
1
1
1
1
1
1
1
1
1
1
1
1
1
1
1
1
1
1
1
1
1
1
1
1
1
1
1
1
1
1
1
1
1
1
1
1
1
1
1
1
1
1
1
1
1
1
1
1
1
1
1
1
1
1
1
1
1
1
1
1
1
1
1
1
1
1
1
1
1
1
1
1
1
1
1
1
1
1
1
1
1
1
1
1
1
1
1
1
1
1
1
1
1
1
1
1
1
1
1
1
1
1
1
1
1
1
1
1
1
1
1
1
1
1
1
1
1
1
1
1
1
1
1
1
1
1
1
1
1
1
1
1
1
1
1
1
1
1
1
1
1
1
1
1
1
1
1
1
1
1
1
1
1
1
1
1
1
1
1
1
1
1
1
1
1
1
1
1
1
1
1
1
1
1
1
1
1
1
1
1
1
1
1
1
1
1
1
1
1
1
1
1
1
1
1
1
1
1
1
1
1
1
1
1
1
1
1
1
1
1
1
1
1
1
1
1
1
1
1
1
1
1
1
1
1
1
1
1
1
1
1
1
1
1
1
1
1
1
1
1
1
1
1
1
1
1
1
1
1
1
1
1
1
1
1
1
1
1
1
1
1
1
1
1
1
1
1
1
1
1
1
1
1
1
1
1
1
1
1
1
1
1
1
1
1
1
1
1
1
1
1
1
1
1
1
1
1
1
1
1
1
1
1
1
1
1
1
1
1
1
1
1
1
1
1
1
1
1
1
1
1
1
1
1
1
1
1
1
1
1
1
1
1
1
1
1
1
1
1
1
1
1
1
1
1
1
1
1
1
1
1
1
1
1
1
1
1
1
1
1
1
1
1
1
1
1
1
1
1
1
1
1
1
1
1
1
1
1
1
1
1
1
1
1
1
1
1
1
1
1
1
1
1
1
1
1
1
1
1
1
1
1
1
1
1
1
1
1
1
1
1
1
1
1
1
1
1
1
1
1
1
1
1
1
1
1
1
1
1
1
1
1
1
1
1
1
1
1
1
1
1
1
1
1
1
1
1
1
1
1
1
1
1
1
1
1
1
1
1
1
1
1
1
1
1
1
1
1
1
1
1
1
1
1
1
1
1
1
1
1
1
1
1
1
1
1
1
1
1
1
1
1
1
1
1
1
1
1
1
1
1
1
1
1
1
1
1
1
1
1
1
1
1
1
1
1
1
1
1
1
1
1
1
1
1
1
1
1
1
1
1
1
1
1
1
1
1
1
1
1
1
1
1
1
1
1
1
1
1
1
1
1
1
1
1
1
1
1
1
1
1
1
1
1
1
1
1
1
1
1
1
1
1
1
1
1
1
1
1
1
1
1
1
1
1
1
1
1
1
1
1
1
1
1
1
1
1
1
1
1
1
1
1
1
1
1
1
1
1
1
1
1
1
1
1
1
1
1
1
1
1
1
1
1
1
1
1
1
1
1
1
1
1
1
1
1
1
1
1
1
1
1
1
1
1
1
1
1
1
1
1
1
1
1
1
1
1
1
1
1
1
1
1
1
1
1
1
1
1
1
1
1
1
1
1
1
1
1
1
1
1
1
1
1
1
1
1
1
1
1
1
1
1
1
1
1
1
1
1
1
1
1
1
1
1
1
1
1
1
1
1
1
1
1
1
1
1
1
1
1
1
1
1
1
1
1
1
1
1
1
1
1
1
1
1
1
1
1
1
1
1
1
1
1
1
1
1
1
1
1
1
1
1
1
1
1
1
1
1
1
1
1
1
1
1
1
1
1
1
1
1
1
1
1
1
1
1
1
1
1
1
1
1
1
1
1
1
1
1
1
1
1
1
1
1
1
1
1
1
1
1
1
1
1
1
1
1
1
1
1
1
1
1
1
1
1
1
1
1
1
1
1
1
1
1
1
1
1
1
1
1
1
1
1
1
1
1
1
1
1
1
1
1
1
1
1
1
1
1
1
1
1
1
1
1
1
1
1
1
1
1
1
1
1
1
1
1
1
1
1
1
1
1
1
1
1
1
1
1
1
1
1
1
1
1
1
1
1
1
1
1
1
1
1
1
1
1
1
1
1
1
1
1
1
1
1
1
1
1
1
1
1
1
1
1
1
1
1
1
1
1
1
1
1
1
1
1
1
1
1
1
1
1
1
1
1
1
1
1
1
1
1
1
1
1
1
1
1
1
1
1
1
1
1
1
1
1
1
1
1
1
VECTORS v double
-7.5600976 -6.5899825 0
4.5428051 -10.037498 0
-3.7334973 3.0443397 0
5.846789 -9.8853039 0
5.4950471 -5.9989499 0
4.7429275 -5.4338262 0
5.9567667 -13.831906 0
-0.47252839 -2.1956007 0
-1.0152594 -3.0438976 0
-10.706233 -3.3976061 0
4.4196618 2.1287361 0
-0.9517784 4.0342267 0
-10.86269 5.6491618 0
-11.484118 2.6349134 0
-0.49184313 -1.7161304 0
3.2059158 -7.659047 0
-2.7330727 -0.50427803 0
1.8467178 5.2740222 0
-8.7895501 7.0535151 0
-1.5233093 -2.1645212 0
-7.743813 -7.4355819 0
-3.8487518 10.943204 0
1.9229323 9.9572429 0
-5.5596041 7.8595651 0
5.5006779 6.7252237 0
2.6309649 -13.726701 0
-8.7565434 -0.0097598066 0
5.3672804 -9.5898233 0
-4.3581904 -4.7285436 0
5.5607844 -1.7390884 0
-3.5039148 3.6659543 0
-5.8766194 0.35855789 0
1.0196882 5.3995973 0
0.024984945 -1.5352415 0
2.2095269 6.4054644 0
-1.2492886 -1.3402343 0
0.0079917096 1.2082468 0
-1.0288281 -2.8485085 0
12.016267 3.1694635 0
6.6382412 8.9876604 0
-5.0384099 -5.2547053 0
-7.0550929 -1.2326669 0
-2.5755052 -0.98984677 0
-2.6793958 -5.7791445 0
-2.0447949 -2.770927 0
-8.4447138 4.5222918 0
-12.878897 11.61914 0
5.3884194 9.5854541 0
5.404544 3.4898235 0
2.630965 13.726701 0
-0.31388177 -9.4693577 0
-4.522482 -3.599651 0
14.030831 -5.2229263 0
1.4710456 -15.968801 0
2.9103555 -6.1242225 0
1.4642466 -4.0491301 0
-1.8536031 -4.3059895 0
-18.036364 4.9449802 0
2.4558517 0.33291313 0
-17.431042 -2.1608774 0
3.8505841 2.351194 0
3.8834402 -13.06642 0
-2.4403553 -4.7075747 0
16.193344 -15.205823 0
-6.9966977 1.0373404 0
1.3834232 1.9372733 0
-12.846378 -6.9815396 0
-8.244693 14.812664 0
4.1299275 -3.2702608 0
-2.0675037 10.024505 0
11.281132 -0.40693291 0
-2.2059523 7.6812416 0
-9.4864684 2.6339189 0
-7.0802893 11.288788 0
-0.18728303 9.4822203 0
-0.22749811 -3.6177591 0
6.8350487 -10.617898 0
5.5673085 -1.464474 0
0.77155493 -17.332266 0
-0.50716026 4.1680336 0
8.1410297 4.9303366 0
-3.2379389 -3.7356261 0
-0.86471712 -11.615932 0
7.1860536 -2.151406 0
-3.2611876 -9.4976006 0
11.500947 -3.7703684 0
13.075867 4.4266188 0
-10.589769 4.7424365 0
12.096795 -4.1964584 0
3.0855372 8.7692529 0
-3.6697488 -1.6933046 0
-6.3842658 5.6904047 0
-2.3384839 2.1507363 0
0.74052486 10.019139 0
-5.6094924 1.0277255 0
-4.5472399 7.9613416 0
3.2097085 9.1937644 0
15.870669 7.3774814 0
6.8350551 10.617903 0
1.3986861 8.8746914 0
5.1769515 1.7536114 0
5.3514312 -14.672258 0
-4.1869337 -6.8558249 0
-6.0463878 -10.96714 0
4.1656569 -1.783196 0
-1.8974294 -5.5030235 0
5.9221683 -9.3430618 0
0.92940147 3.9006436 0
-4.2281252 6.0227202 0
-10.98608 -3.392348 0
0.69073217 -2.1248026 0
-2.0734873 -8.6112082 0
0.73768132 -1.8310475 0
0.66040819 -0.71038413 0
3.1419897 10.531963 0
10.083078 10.57185 0
0.43628696 -0.24874322 0
4.623371 4.8251616 0
2.0795325 3.3943257 0
-13.162547 16.752764 0
-4.7721538 -17.978479 0
-5.8666798 1.5529672 0
9.6131449 -1.0681522 0
-2.8323194 9.2058562 0
-1.5127879 7.7357953 0
0.95266033 -6.338672 0
-1.9959908 -10.927605 0
5.4495225 0.37129457 0
6.289661 -8.1582695 0
13.588693 -3.8125584 0
-2.1910812 -8.0564836 0
-3.2214694 1.7918487 0
6.0832112 -15.786496 0
-7.1069973 -3.6637049 0
4.3622235 0.29640718 0
2.476366 4.4170334 0
-4.0252498 6.0000562 0
15.434482 -6.1698531 0
2.919865 -14.147343 0
3.7145263 6.7484982 0
1.7887316 -2.165521 0
-0.9398709 -9.1454151 0
-8.7565324 -2.9022751 0
-3.709838 9.9454587 0
-6.5398702 -5.1926568 0
2.9306978 5.4111052 0
2.5169595 -2.2223942 0
-2.1079447 1.0007821 0
-1.9954015 10.927771 0
1.1304435 6.3268175 0
9.7192238 -8.516563 0
-4.4274493 -5.5092251 0
-0.4384096 -8.8550043 0
1.1806313 -13.156706 0
-1.4903269 -11.40963 0
-1.8001935 -2.5482735 0
-6.0491195 4.901831 0
-3.0130705 -9.0394053 0
4.6471685 1.5127373 0
0.25384694 1.4631514 0
-6.9084334 2.9628565 0
5.6393157 7.3482681 0
-2.1933405 -1.0699552 0
-2.0436744 1.3686461 0
-5.6067508 6.4925516 0
6.2631099 -8.1602757 0
-3.3268519 4.9572701 0
-5.4858618 2.4964442 0
-1.7644719 14.489148 0
10.264879 8.5065768 0
1.5183195 -7.1242209 0
6.7492546 -3.4282495 0
-7.027964 8.307689 0
-8.3381379 3.0887569 0
6.4115329 0.70842192 0
4.8370531 -9.9977527 0
-2.4318222 -0.18630064 0
2.520042 -18.566941 0
4.0930603 8.9590125 0
7.0165625 -4.1931298 0
0.5566923 -1.9593942 0
13.156075 -5.6829935 0
-11.1753 10.756352 0
-11.1271 9.6357321 0
-7.0723687 4.1322034 0
-2.2162432 -0.46367188 0
10.114872 9.4960968 0
-12.524587 -5.6574106 0
-0.12514299 -4.5489464 0
2.171917 1.0945412 0
17.740075 7.2794599 0
-2.2832097 -1.9301367 0
-0.81076536 13.479396 0
0.57436667 -1.0927524 0
-11.210637 -0.13664898 0
3.1187389 4.5878979 0
1.5481246 9.9119673 0
1.6139054 4.1150988 0
1.2285636 -1.9900228 0
4.8370532 9.9977527 0
2.9152708 -4.1489606 0
11.659348 -5.7826691 0
-5.5753494 -7.3446477 0
-5.5279473 11.77304 0
1.3125254 3.926846 0
0.61536954 -0.53084566 0
-1.5426291 -8.8887569 0
0.85844235 3.4888193 0
-0.30182319 8.058236 0
-11.609212 10.283299 0
0.91347072 -0.68986764 0
-9.0626838 1.0356113 0
-10.902084 -3.5625701 0
0.79015305 -6.6825341 0
-5.3802722 4.0501583 0
5.8678614 -4.1486176 0
-9.5106238 12.447992 0
4.0243966 11.400314 0
4.7048147 15.162875 0
-0.21157379 5.5532669 0
-1.8355437 12.936359 0
5.3087956 2.1765288 0
-1.1474155 12.213976 0
-1.0893432 9.3917029 0
4.5546786 2.0880438 0
-2.3958228 2.8548385 0
-3.9330707 -8.2517213 0
-8.2475315 -10.27644 0
-2.2791499 7.1189365 0
-3.7676006 -1.5107438 0
-4.3560035 5.8136405 0
-15.284483 -6.6082642 0
8.8985411 11.345717 0
-4.1200189 1.0375588 0
-2.9211762 -0.70887922 0
-12.825337 -3.3777642 0
-6.8961108 3.8452074 0
5.3075126 -9.7932921 0
3.5103991 -11.01048 0
-10.302884 -5.8714038 0
-15.000677 6.2332769 0
-0.25668513 -9.9596395 0
4.1436853 5.5942056 0
2.3543162 -12.937297 0
-0.40891335 1.6097894 0
-7.4043883 1.9958108 0
4.9470374 -11.922583 0
-3.8713684 17.212151 0
-7.3927948 15.262072 0
-2.7358636 -2.1293017 0
11.491989 -2.0679338 0
1.7214033 -5.2337607 0
-3.8242192 -6.2071449 0
-2.3074708 -13.297688 0
-14.797829 3.5232446 0
4.3331731 8.8630772 0
3.0852929 1.2858626 0
-8.2546834 -9.5454505 0
-8.9851583 1.8501614 0
-5.2419894 1.4948754 0
-1.1187449 9.3778585 0
0.84137658 19.159812 0
5.7230957 -6.2351345 0
9.0763107 9.8479485 0
10.656032 0.44439027 0
16.745314 9.4663466 0
-2.2851821 0.60309109 0
4.4254225 8.878901 0
-12.14319 1.0395342 0
-3.8020373 7.1564614 0
-1.4319253 9.7143182 0
1.9215155 -0.88930946 0
-3.3224663 -5.8454 0
-10.757754 0.53808387 0
-4.0661713 11.225052 0
-8.626476 -5.1836382 0
-7.5075237 -4.6298459 0
6.9960075 -8.4186579 0
-5.8790147 -11.65431 0
-4.6248144 7.0472322 0
-3.3430057 -13.843461 0
-8.2995575 0.46948839 0
-4.8408957 -6.7010191 0
-0.045608855 0.45634355 0
-13.746655 -2.919722 0
16.632897 -1.166558 0
2.55021 8.7322295 0
7.0318242 2.2555186 0
-1.061095 -5.0936963 0
3.5912712 -5.0186615 0
12.175546 15.481336 0
8.1107131 -0.15034651 0
-2.9306579 2.092408 0
0.50528654 -0.34166992 0
10.03383 6.1798222 0
-5.4089533 15.563658 0
-7.3019251 -2.5037063 0
7.5674852 1.738315 0
0.32373382 9.6949488 0
7.5506048 9.1518438 0
7.2799402 -5.6111254 0
8.0355604 -7.041118 0
-0.87835521 -1.9473144 0
0.97223766 0.27051799 0
-2.6318525 -2.396777 0
6.5096991 -9.0948497 0
-0.93867622 -0.88987164 0
3.2598565 -7.4403687 0
1.5090502 10.272789 0
15.849001 8.2844371 0
-3.1296515 4.1522773 0
-2.7886205 -5.6008944 0
1.2436634 -1.6233 0
-2.8076631 12.668969 0
-4.8792799 7.9738239 0
-2.8339081 -5.7288451 0
13.530352 13.472427 0
-2.4269927 -6.3279785 0
2.808714 -1.8482091 0
10.098093 4.717159 0
-12.732175 0.38667477 0
2.0635321 4.195798 0
4.1764295 3.5855111 0
0.99689264 10.683587 0
6.6657391 16.553099 0
2.1710551 -14.025489 0
-9.0397891 -0.73374939 0
-4.1136537 -9.0460136 0
4.2473612 -3.7622292 0
-11.557234 -9.0033764 0
-6.3152477 7.3300903 0
-5.3690824 1.9307376 0
-6.9698961 2.605655 0
-2.7426053 0.15272417 0
-10.736253 8.1832042 0
-0.63822168 5.7789666 0
-2.3874978 -2.4712425 0
8.6863992 2.6748653 0
13.568478 2.2324507 0
3.838705 4.595131 0
-5.1876578 -0.34722019 0
-5.1861538 2.2152358 0
-0.37392742 -0.62379133 0
-6.5996046 11.265538 0
-11.988575 4.3463506 0
1.8665635 3.9021821 0
2.453285 3.5238663 0
-11.754413 14.547533 0
0.70621009 8.7877152 0
-1.0673757 8.4132269 0
-3.1180267 -11.672716 0
-7.148462 -2.4408298 0
3.3845437 -4.0892915 0
-5.7414484 -6.7120218 0
-12.613948 -1.9803624 0
-0.98610032 8.2218274 0
-6.1088528 7.3273007 0
0.91544286 -3.4615797 0
-1.0498287 -4.5281692 0
-7.2263092 -13.883341 0
-0.93317163 0.73366347 0
-16.072142 -9.1657604 0
-2.4102458 -2.2272642 0
-0.62076189 -1.3102546 0
-5.4186875 5.8273887 0
20.499465 -11.505561 0
4.7330406 -6.2211338 0
-3.8908192 -4.5684881 0
-7.6480348 -5.4679186 0
10.204155 1.2271878 0
3.9743749 2.3063117 0
-2.8770749 1.2162394 0
-9.5517205 0.74867258 0
0.21497282 11.518472 0
2.5387526 12.606614 0
-1.5614222 -6.7379568 0
-3.3974174 -0.70088938 0
-7.2552223 0.49447157 0
-6.1477175 -4.1822314 0
-8.0817008 -11.811188 0
3.1840771 -1.5527683 0
-7.054136 2.0442663 0
7.8822219 -3.928961 0
5.5056552 -11.619802 0
5.7728604 -2.5342912 0
6.1014868 -1.1331578 0
7.7693982 -2.9143625 0
-13.006731 3.8043762 0
12.405143 0.77245668 0
10.07156 -4.7356966 0
9.6394438 -7.2226778 0
0.13089973 7.317335 0
-0.72191152 -1.599555 0
1.4297575 5.2008911 0
0.51270509 -0.87497497 0
0.50758159 12.742317 0
-0.098479124 0.35724338 0
-11.651765 1.6614875 0
-10.092227 2.6379003 0
-2.2978284 7.6065715 0
10.172886 -11.21847 0
5.652227 1.0524662 0
-11.453405 -2.7932945 0
12.262716 10.971075 0
-2.8220652 -2.5549106 0
-4.4498657 -4.3477169 0
-12.868312 -10.671715 0
-3.1275235 7.5430113 0
-6.4287103 -5.4181034 0
5.7689877 6.0902423 0
-12.685747 -1.3290443 0
-12.735811 -5.7675549 0
3.4525983 -0.48226968 0
-6.5059573 -18.037428 0
-12.593568 2.1034159 0
0.43425228 -6.9664085 0
1.8168628 10.093421 0
-12.916192 -3.7560509 0
2.3803576 -7.2302478 0
-13.776669 -2.12414 0
-5.6541746 -4.3456255 0
4.7719543 -2.4791054 0
-1.9345614 9.3928031 0
-3.2873095 1.2972258 0
-8.7507557 13.101039 0
-7.6536427 -7.4569769 0
-12.343701 1.4524567 0
-8.3445354 -4.4544489 0
-11.560558 -13.264059 0
-4.143862 -0.072418922 0
10.124514 -3.1852563 0
4.2809418 -5.0810832 0
-3.765331 -6.5166992 0
-4.0562903 8.5691394 0
-3.8749007 11.421616 0
-0.0038071903 6.5226093 0
-4.1228153 5.0954216 0
6.8581689 -5.4963355 0
-4.3132186 -5.4672474 0
5.6490663 8.8694892 0
-7.5789493 2.5545364 0
9.7509093 5.7381649 0
-3.7895509 -0.16927247 0
2.5251998 -4.3286931 0
-9.5168235 7.1665765 0
3.7268836 0.040616671 0
-5.9275645 1.5203533 0
-6.2124421 5.4699177 0
6.2469446 1.8368628 0
-9.7148096 -2.1783901 0
-7.6583773 -13.393441 0
-6.449738 -10.207031 0
-9.4102928 -5.345046 0
7.3440266 0.765729 0
3.3988387 7.2637576 0
2.6856209 -2.2928635 0
-1.6276928 -13.959451 0
-5.3169009 -8.5690556 0
-6.973474 8.7214593 0
-1.0864982 -0.1057913 0
7.0941933 -11.898281 0
-2.5266457 -2.527455 0
4.2270751 7.2903688 0
0.77925628 -1.3977443 0
-2.9782849 -0.089607 0
-2.6444057 10.017474 0
-6.5702098 0.33036033 0
5.7071144 4.7996394 0
4.5219681 -0.043318334 0
-6.8256779 3.7764141 0
-2.3588735 -9.1431832 0
1.4587803 3.5266555 0
-0.25401834 5.5174878 0
-6.7619404 10.56109 0
6.236777 10.046328 0
-6.7719436 -6.261699 0
-2.389526 0.076913814 0
-6.8541047 -5.5994046 0
-8.9824956 -6.1795511 0
8.2637031 -7.9403701 0
-14.313161 -3.7232347 0
-1.1505804 -8.7832388 0
6.1296648 0.7585331 0
-9.7821381 -13.238576 0
6.53376 12.80261 0
-6.8022751 5.4438567 0
13.173329 -6.9390227 0
-2.9098529 2.946067 0
-5.3198417 4.8677531 0
3.2968378 -7.1953305 0
19.74017 -8.5706769 0
8.2972658 -1.0802938 0
11.373834 1.7621842 0
1.2661982 6.9495747 0
12.486904 1.1333092 0
-11.183589 0.93642468 0
8.4201705 5.3704362 0
-5.2098345 -3.228048 0
-6.6452686 3.7274432 0
-10.50956 0.63087469 0
-3.2149926 -9.7964965 0
-0.84274179 -7.9196671 0
2.760214 3.0585806 0
-2.699382 -9.0176541 0
5.3812021 2.6780921 0
2.3404819 -4.7743284 0
-0.62595427 -7.3094135 0
-10.192534 -5.4324561 0
8.6325163 -4.4551372 0
9.9567637 0.17172067 0
-1.4195434 5.9889377 0
-0.63557364 1.4292975 0
10.675246 0.63241661 0
0.7910885 -2.7359495 0
-4.1048385 -11.664553 0
9.9891301 -0.12027112 0
9.6421698 -6.669346 0
-6.7168871 -4.0610791 0
1.3411474 5.3957555 0
-0.54803731 10.486625 0
4.576842 10.147304 0
-4.8957002 4.058922 0
-7.8195155 6.8244385 0
-9.9148478 -0.34407416 0
-7.2219883 -2.0087418 0
-10.176212 0.19031892 0
-1.5113979 3.8775813 0
-13.148414 7.5385462 0
3.6917312 3.7055521 0
5.6428325 -4.2129476 0
3.6856097 7.6210787 0
6.7391846 -1.5495132 0
9.0263628 5.1709947 0
9.4899331 -0.13368797 0
9.3170562 -0.17630603 0
9.9968089 -0.21735761 0
3.0705496 -10.740708 0
-1.4288279 16.153711 0
-4.9283343 -10.268055 0
9.9942682 -0.26987041 0
13.804658 -0.090615091 0
5.6693324 -1.8426055 0
8.9927918 -5.4074088 0
-9.5380255 6.3485736 0
-5.6366618 6.2535961 0
-2.8823847 -3.2054191 0
-8.896376 1.1679793 0
2.4122986 -1.7168373 0
-10.190417 0.088029173 0
-9.4031433 5.2608848 0
-8.2443661 0.34241133 0
-10.581626 -0.76233817 0
-6.4601229 3.9752648 0
-3.4953265 -8.8823235 0
3.2644638 7.1955651 0
2.7628632 0.48918928 0
9.2285669 9.4349673 0
9.909811 -0.15179143 0
9.9724329 -0.0039645492 0
9.9943583 -0.0016403189 0
9.9997876 0.0007081795 0
10.002348 -0.0047020085 0
-7.3481719 7.7816281 0
10.00155 0.034004899 0
9.9998343 0.0013335937 0
9.9993024 0.00017802984 0
9.9937066 0.0014781712 0
9.9557769 0.047267912 0
11.556291 -2.3166941 0
-4.2727861 -5.2057062 0
-0.58090986 0.51379736 0
-6.3196697 1.7111608 0
-9.3382453 4.7123322 0
-9.2040595 6.29502 0
-11.930184 3.1496019 0
-6.5703175 -8.461836 0
-6.5657305 -7.1625719 0
-7.3576789 2.04762 0
-1.0148927 -11.402654 0
-4.9963464 -2.1183199 0
9.9017187 -1.19948 0
5.6458186 4.9545792 0
9.9900019 -0.010024459 0
10.000435 -6.2107284e-05 0
10.000467 -3.9581697e-06 0
10.000494 -2.5151603e-06 0
10.000761 3.2733627e-05 0
10.0042 -0.0012305842 0
10.000755 0.00053722766 0
10.000491 -5.2200411e-06 0
10.00049 3.4468816e-06 0
10.000357 0.00021732182 0
9.9261713 0.042092314 0
6.5627068 -6.1304824 0
9.9291007 1.2253439 0
-4.4163409 2.5317043 0
1.3270516 8.4324693 0
-11.555144 0.1707282 0
-2.8275279 -1.2865256 0
-10.014849 -0.024090285 0
-7.3381236 -0.43875223 0
-2.0040587 -2.5467512 0
-10.221549 0.2886221 0
-10.320327 -6.4362966 0
11.497746 1.282886 0
9.8368364 -0.061814783 0
9.9714042 -0.001027587 0
9.9929865 -0.00025209169 0
9.9931627 -1.1144512e-05 0
9.99317 6.0509771e-09 0
9.99317 -7.7952143e-09 0
9.993169 5.8724289e-07 0
9.993191 -1.1302632e-06 0
9.9931696 3.3815222e-07 0
9.9931699 -7.0897398e-08 0
9.9931699 -5.898853e-09 0
9.9931593 9.6776693e-06 0
9.9930686 7.5157427e-05 0
9.9886056 0.0015852972 0
9.8742666 0.049510039 0
10.4103 -0.22849253 0
-11.177464 3.3671568 0
-9.9793023 -0.16089844 0
-10.024483 -0.032655404 0
-10.015037 -0.015028403 0
-5.6616867 6.6394751 0
-2.9798283 -6.3215019 0
-2.9590168 -13.750454 0
-4.0669427 -0.16277423 0
2.2759872 2.387921 0
-13.591473 -6.5588244 0
8.6851532 -2.5896993 0
-17.164875 0.6740945 0
5.9616529 13.320649 0
-10.342238 -13.617463 0
1.2582066 4.0004383 0
10.85906 1.8137482 0
-0.720963 -19.871843 0
5.9513606 3.9048292 0
-6.3298014 -8.5503266 0
-5.7777618 4.2091792 0
0.35610873 2.0388297 0
-3.8764562 8.4128415 0
-3.5143417 2.1646491 0
-0.29315791 -2.0488925 0
0.29920642 -2.597854 0
1.7975628 14.344428 0
3.8553886 -3.6582757 0
3.8351055 6.2164942 0
3.7030206 13.668351 0
-2.6309649 -13.726701 0
-0.90127918 -11.217463 0
-5.3659202 -9.6141066 0
8.6835109 2.4930703 0
7.5325154 -2.1003487 0
6.3364326 5.2236168 0
-0.77221343 -6.9839038 0
2.1330198 6.4760144 0
-7.777238 -24.614083 0
9.2695395 -0.92787051 0
-14.803966 2.4174654 0
-1.1555266 -9.5709089 0
-0.42065471 -0.99464772 0
-5.2356708 14.674335 0
7.6551832 -7.728462 0
-4.2353632 -6.1438395 0
-8.8857319 -7.4792358 0
-4.3613615 0.58756785 0
-6.3802303 3.7437429 0
-5.1240471 -1.1960638 0
-8.5074454 7.0961123 0
2.2456315 -6.727506 0
-8.0769907 11.908594 0
-3.8462475 10.772276 0
-2.630965 13.726701 0
0.30500927 -9.4786707 0
-5.714435 0.30853472 0
5.8568163 -6.9473736 0
-4.6714234 -16.378983 0
6.6591168 -0.33988875 0
0.067270197 -3.1323483 0
5.2101918 -12.922385 0
-10.298753 -9.2840819 0
-4.0318093 -5.503725 0
8.034887 -8.1184498 0
9.8433214 2.6053237 0
-2.3341633 3.8401963 0
6.5097207 14.634377 0
6.0677968 14.442939 0
5.9280113 4.8573872 0
-18.550359 -0.39011143 0
9.3251912 8.0036803 0
1.8130528 -0.3590986 0
-5.0335983 4.1416437 0
9.2995079 -1.4544296 0
6.372807 -1.4158484 0
-15.015228 4.4652491 0
-4.1482363 3.1209607 0
-6.324099 -1.7435545 0
0.3214475 9.3924064 0
0.1562089 -3.672976 0
-6.8350487 -10.617899 0
-0.11103844 -16.227365 0
-4.6056473 -11.011269 0
10.640128 -15.34618 0
4.2051204 -7.2611441 0
11.589893 3.2006533 0
-0.31654373 -4.0199308 0
-3.0816166 -5.0948002 0
-2.1366106 -11.317394 0
-6.4710054 -11.193895 0
-3.8028117 -6.0906123 0
4.0326525 15.22126 0
-4.8355074 -9.0620142 0
0.51806566 12.215428 0
-3.4759434 6.0082431 0
10.110428 2.1492044 0
3.5009023 -1.5822731 0
2.7045834 5.1779337 0
-1.1379202 11.326738 0
0.95631905 -2.4743926 0
0.56458061 0.69750597 0
11.38658 8.5697863 0
-6.8350545 10.617888 0
-0.51128092 3.4810642 0
0.051500803 -5.1955273 0
3.4391735 8.5532594 0
-0.47616827 -3.2410883 0
4.962561 -5.7178872 0
5.6289448 -18.126071 0
4.8812506 4.2799251 0
10.085195 -4.6866867 0
2.2542217 -1.334825 0
8.6118047 -24.423667 0
2.0180775 -3.0830921 0
0.61309902 -5.8615239 0
-18.712108 2.8180411 0
1.0071169 7.1140073 0
-12.671294 10.529203 0
-3.8639333 -1.8350453 0
5.7980516 -8.9968778 0
3.3782102 -5.6551327 0
1.2557323 3.4484118 0
-3.3681789 -9.2377178 0
-3.5807127 5.3349685 0
7.7266016 2.1193605 0
15.24296 -4.2935279 0
-9.7732719 5.9389165 0
1.2104783 8.6982989 0
-1.7642979 -1.9398462 0