# vtk DataFile Version 4.0
hesp visualization file
ASCII
DATASET UNSTRUCTURED_GRID
POINTS 1250 double
32.870175 1.6314963 4
30.488641 3.4913925 4
31.083691 3.3493766 4
30.167712 4.491555 4
30.170643 5.6120412 4
30.170653 6.7347721 4
30.170653 7.8572343 4
30.170653 8.9796964 4
30.170653 10.102158 4
30.170653 11.22462 4
30.170653 12.347083 4
30.170653 13.469545 4
30.170653 14.592011 4
30.170653 15.714469 4
30.170653 16.836931 4
30.170653 17.959393 4
30.170653 19.081855 4
30.170653 20.204317 4
30.170653 21.326779 4
30.170653 22.449241 4
30.170643 23.571707 4
30.167712 24.692435 4
31.08369 25.834647 4
30.48864 25.692621 4
32.870175 27.552517 4
31.185571 -2.329829 4
31.90938 2.059012 4
31.414361 3.1874184 4
31.18296 4.4508633 4
31.17369 5.6422461 4
31.155956 6.7347716 4
31.155956 7.8572343 4
31.155956 8.9796964 4
31.155956 10.102158 4
31.155956 11.22462 4
31.155956 12.347083 4
31.155956 13.469545 4
31.155956 14.592003 4
31.155956 15.714469 4
31.155956 16.836931 4
31.155956 17.959393 4
31.155956 19.081855 4
31.155956 20.204317 4
31.155956 21.326779 4
31.155956 22.449242 4
31.173753 23.541886 4
31.182984 24.733165 4
31.414446 25.996712 4
31.90938 27.125002 4
31.185571 31.513842 4
30.877262 0.95254204 4
31.760973 2.7329839 4
31.025813 5.4429518 4
31.474092 4.6017357 4
31.498686 5.6117812 4
31.497467 6.7347718 4
31.497467 7.8572343 4
31.497467 8.9796964 4
31.497467 10.102158 4
31.497467 11.22462 4
31.497467 12.347083 4
31.497467 13.469545 4
31.497467 14.592009 4
31.497467 15.714469 4
31.497467 16.836931 4
31.497467 17.959393 4
31.497467 19.081855 4
31.497467 20.204317 4
31.497467 21.326779 4
31.497467 22.449241 4
31.498695 23.57206 4
31.47407 24.582234 4
31.025744 23.741174 4
31.760955 26.451047 4
30.877262 28.231471 4
31.774492 -0.4987422 4
32.042405 0.40215136 4
32.370648 3.6297063 4
32.491552 4.4189031 4
32.482398 5.6124154 4
32.482399 6.7347721 4
32.482399 7.8572343 4
32.482399 8.9796964 4
32.482399 10.102158 4
32.482399 11.22462 4
32.482399 12.347083 4
32.482399 13.469545 4
32.482399 14.592005 4
32.482399 15.714469 4
32.482399 16.836931 4
32.482399 17.959393 4
32.482399 19.081855 4
32.482399 20.204317 4
32.482399 21.326779 4
32.482399 22.449241 4
32.482398 23.571701 4
32.491557 24.765135 4
32.370569 25.554111 4
32.042404 28.781862 4
31.774492 29.682755 4
33.943337 2.6955918 4
30.91824 2.7286367 4
32.761116 3.0563046 4
32.84555 4.517253 4
32.824439 5.6122432 4
32.824445 6.7347723 4
32.824445 7.8572343 4
32.824445 8.9796964 4
32.824445 10.102158 4
32.824445 11.22462 4
32.824445 12.347083 4
32.824445 13.469545 4
32.824445 14.592008 4
32.824445 15.714469 4
32.824445 16.836931 4
32.824445 17.959393 4
32.824445 19.081855 4
32.824445 20.204317 4
32.824445 21.326779 4
32.824445 22.449241 4
32.824439 23.571705 4
32.845556 24.666757 4
32.761249 26.127963 4
30.918241 26.455374 4
33.943338 26.488421 4
31.210136 0.72855306 4
33.297719 1.5670556 4
33.867115 3.6297904 4
33.80877 4.4903026 4
33.80877 5.6123383 4
33.80877 6.7347723 4
33.80877 7.8572343 4
33.80877 8.9796964 4
33.80877 10.102158 4
33.80877 11.22462 4
33.80877 12.347083 4
33.80877 13.469545 4
33.80877 14.592006 4
33.80877 15.714469 4
33.80877 16.836931 4
33.80877 17.959393 4
33.80877 19.081855 4
33.80877 20.204317 4
33.80877 21.326779 4
33.80877 22.449241 4
33.80877 23.571702 4
33.80877 24.693702 4
33.866977 25.554006 4
33.297717 27.616954 4
31.210136 28.45546 4
32.402816 2.2185767 4
35.52487 3.0469282 4
34.017231 3.2878981 4
34.151459 4.4895801 4
34.151477 5.6122959 4
34.151478 6.7347723 4
34.151478 7.8572343 4
34.151478 8.9796964 4
34.151478 10.102158 4
34.151478 11.22462 4
34.151478 12.347083 4
34.151478 13.469545 4
34.151478 14.592007 4
34.151478 15.714469 4
34.151478 16.836931 4
34.151478 17.959393 4
34.151478 19.081855 4
34.151478 20.204317 4
34.151478 21.326779 4
34.151478 22.449241 4
34.151477 23.571703 4
34.151459 24.694439 4
34.017242 25.896202 4
35.524855 26.137102 4
32.402816 26.965438 4
36.100649 -0.91555971 4
34.37112 3.1121062 4
35.242028 3.4073329 4
35.135161 4.4899164 4
35.135161 5.6123139 4
35.135161 6.7347723 4
35.135161 7.8572343 4
35.135161 8.9796964 4
35.135161 10.102158 4
35.135161 11.22462 4
35.135161 12.347083 4
35.135161 13.469545 4
35.135161 14.592007 4
35.135161 15.714469 4
35.135161 16.836931 4
35.135161 17.959393 4
35.135161 19.081855 4
35.135161 20.204317 4
35.135161 21.326779 4
35.135161 22.449241 4
35.135161 23.571703 4
35.135161 24.694094 4
35.242007 25.776608 4
34.371114 26.071914 4
36.100649 30.099573 4
34.270301 2.2628608 4
35.242955 2.3995292 4
35.450822 3.5768059 4
35.478427 4.4898186 4
35.478427 5.6123087 4
35.478427 6.7347723 4
35.478427 7.8572343 4
35.478427 8.9796964 4
35.478427 10.102158 4
35.478427 11.22462 4
35.478427 12.347083 4
35.478427 13.469545 4
35.478427 14.592007 4
35.478427 15.714469 4
35.478427 16.836931 4
35.478427 17.959393 4
35.478427 19.081855 4
35.478427 20.204317 4
35.478427 21.326779 4
35.478427 22.449241 4
35.478427 23.571703 4
35.478427 24.694196 4
35.450849 25.607207 4
35.242963 26.78448 4
34.270301 26.921152 4
34.624286 1.1243108 4
36.00939 1.246137 4
36.461913 3.3782074 4
36.461619 4.4898462 4
36.461619 5.6123104 4
36.461619 6.7347723 4
36.461619 7.8572343 4
36.461619 8.9796964 4
36.461619 10.102158 4
36.461619 11.22462 4
36.461619 12.347083 4
36.461619 13.469545 4
36.461619 14.592007 4
36.461619 15.714469 4
36.461619 16.836931 4
36.461619 17.959393 4
36.461619 19.081855 4
36.461619 20.204317 4
36.461619 21.326779 4
36.461619 22.449241 4
36.461619 23.571703 4
36.461619 24.694167 4
36.461914 25.805791 4
36.00939 27.937876 4
34.624286 28.059702 4
35.73912 1.1200135 4
37.227685 2.9611063 4
36.804503 3.3623826 4
36.805155 4.4898491 4
36.805156 5.6123102 4
36.805156 6.7347723 4
36.805156 7.8572343 4
36.805156 8.9796964 4
36.805156 10.102158 4
36.805156 11.22462 4
36.805156 12.347083 4
36.805156 13.469545 4
36.805156 14.592007 4
36.805156 15.714469 4
36.805156 16.836931 4
36.805156 17.959393 4
36.805156 19.081855 4
36.805156 20.204317 4
36.805156 21.326779 4
36.805156 22.449241 4
36.805156 23.571703 4
36.805155 24.694164 4
36.804503 25.821637 4
37.227685 26.222907 4
35.73912 28.064 4
36.869528 1.1243959 4
36.868076 2.2470951 4
37.788135 3.3677621 4
37.788141 4.4898471 4
37.788141 5.6123102 4
37.788141 6.7347723 4
37.788141 7.8572343 4
37.788141 8.9796964 4
37.788141 10.102158 4
37.788141 11.22462 4
37.788141 12.347083 4
37.788141 13.469545 4
37.788141 14.592007 4
37.788141 15.714469 4
37.788141 16.836931 4
37.788141 17.959393 4
37.788141 19.081855 4
37.788141 20.204317 4
37.788141 21.326779 4
37.788141 22.449241 4
37.788141 23.571703 4
37.788141 24.694166 4
37.788135 25.81625 4
36.868076 26.936918 4
36.869528 28.059617 4
37.992006 1.1243876 4
37.992001 2.2449382 4
38.130847 3.3672488 4
38.130904 4.4898485 4
38.130904 5.6123102 4
38.130904 6.7347723 4
38.130904 7.8572343 4
38.130904 8.9796964 4
38.130904 10.102158 4
38.130904 11.22462 4
38.130904 12.347083 4
38.130904 13.469545 4
38.130904 14.592007 4
38.130904 15.714469 4
38.130904 16.836931 4
38.130904 17.959393 4
38.130904 19.081855 4
38.130904 20.204317 4
38.130904 21.326779 4
38.130904 22.449241 4
38.130904 23.571703 4
38.130904 24.694165 4
38.130847 25.816765 4
37.992001 26.939075 4
37.992006 28.059626 4
39.114469 1.1243872 4
39.114469 2.2449339 4
39.114468 3.3673862 4
39.114468 4.4898482 4
39.114468 5.6123102 4
39.114468 6.7347723 4
39.114468 7.8572343 4
39.114468 8.9796964 4
39.114468 10.102158 4
39.114468 11.22462 4
39.114468 12.347083 4
39.114468 13.469545 4
39.114468 14.592007 4
39.114468 15.714469 4
39.114468 16.836931 4
39.114468 17.959393 4
39.114468 19.081855 4
39.114468 20.204317 4
39.114468 21.326779 4
39.114468 22.449241 4
39.114468 23.571703 4
39.114468 24.694165 4
39.114468 25.816627 4
39.114469 26.939079 4
39.114469 28.059626 4
40.236931 1.1243872 4
40.236931 2.2449338 4
40.236931 3.3673861 4
40.236931 4.4898482 4
40.236931 5.6123102 4
40.236931 6.7347723 4
40.236931 7.8572343 4
40.236931 8.9796964 4
40.236931 10.102158 4
40.236931 11.22462 4
40.236931 12.347083 4
40.236931 13.469545 4
40.236931 14.592007 4
40.236931 15.714469 4
40.236931 16.836931 4
40.236931 17.959393 4
40.236931 19.081855 4
40.236931 20.204317 4
40.236931 21.326779 4
40.236931 22.449241 4
40.236931 23.571703 4
40.236931 24.694165 4
40.236931 25.816627 4
40.236931 26.939079 4
40.236931 28.059626 4
41.359393 1.1243872 4
41.359393 2.2449338 4
41.359393 3.3673861 4
41.359393 4.4898482 4
41.359393 5.6123102 4
41.359393 6.7347723 4
41.359393 7.8572343 4
41.359393 8.9796964 4
41.359393 10.102158 4
41.359393 11.22462 4
41.359393 12.347083 4
41.359393 13.469545 4
41.359393 14.592007 4
41.359393 15.714469 4
41.359393 16.836931 4
41.359393 17.959393 4
41.359393 19.081855 4
41.359393 20.204317 4
41.359393 21.326779 4
41.359393 22.449241 4
41.359393 23.571703 4
41.359393 24.694165 4
41.359393 25.816627 4
41.359393 26.939079 4
41.359393 28.059626 4
42.481855 1.1243872 4
42.481855 2.2449338 4
42.481855 3.3673861 4
42.481855 4.4898482 4
42.481855 5.6123102 4
42.481855 6.7347723 4
42.481855 7.8572343 4
42.481855 8.9796964 4
42.481855 10.102158 4
42.481855 11.22462 4
42.481855 12.347083 4
42.481855 13.469545 4
42.481855 14.592007 4
42.481855 15.714469 4
42.481855 16.836931 4
42.481855 17.959393 4
42.481855 19.081855 4
42.481855 20.204317 4
42.481855 21.326779 4
42.481855 22.449241 4
42.481855 23.571703 4
42.481855 24.694165 4
42.481855 25.816627 4
42.481855 26.939079 4
42.481855 28.059626 4
43.604317 1.1243872 4
43.604317 2.2449338 4
43.604317 3.3673861 4
43.604317 4.4898482 4
43.604317 5.6123102 4
43.604317 6.7347723 4
43.604317 7.8572343 4
43.604317 8.9796964 4
43.604317 10.102158 4
43.604317 11.22462 4
43.604317 12.347083 4
43.604317 13.469545 4
43.604317 14.592007 4
43.604317 15.714469 4
43.604317 16.836931 4
43.604317 17.959393 4
43.604317 19.081855 4
43.604317 20.204317 4
43.604317 21.326779 4
43.604317 22.449241 4
43.604317 23.571703 4
43.604317 24.694165 4
43.604317 25.816627 4
43.604317 26.939079 4
43.604317 28.059626 4
44.726779 1.1243872 4
44.726779 2.2449338 4
[...]
POINT_DATA 1250
SCALARS m double
LOOKUP_TABLE default
1
1
1
1
1
1
1
1
1
1
1
1
1
1
1
1
1
1
1
1
1
1
1
1
1
1
1
1
1
1
1
1
1
1
1
1
1
1
1
1
1
1
1
1
1
1
1
1
1
1
1
1
1
1
1
1
1
1
1
1
1
1
1
1
1
1
1
1
1
1
1
1
1
1
1
1
1
1
1
1
1
1
1
1
1
1
1
1
1
1
1
1
1
1
1
1
1
1
1
1
1
1
1
1
1
1
1
1
1
1
1
1
1
1
1
1
1
1
1
1
1
1
1
1
1
1
1
1
1
1
1
1
1
1
1
1
1
1
1
1
1
1
1
1
1
1
1
1
1
1
1
1
1
1
1
1
1
1
1
1
1
1
1
1
1
1
1
1
1
1
1
1
1
1
1
1
1
1
1
1
1
1
1
1
1
1
1
1
1
1
1
1
1
1
1
1
1
1
1
1
1
1
1
1
1
1
1
1
1
1
1
1
1
1
1
1
1
1
1
1
1
1
1
1
1
1
1
1
1
1
1
1
1
1
1
1
1
1
1
1
1
1
1
1
1
1
1
1
1
1
1
1
1
1
1
1
1
1
1
1
1
1
1
1
1
1
1
1
1
1
1
1
1
1
1
1
1
1
1
1
1
1
1
1
1
1
1
1
1
1
1
1
1
1
1
1
1
1
1
1
1
1
1
1
1
1
1
1
1
1
1
1
1
1
1
1
1
1
1
1
1
1
1
1
1
1
1
1
1
1
1
1
1
1
1
1
1
1
1
1
1
1
1
1
1
1
1
1
1
1
1
1
1
1
1
1
1
1
1
1
1
1
1
1
1
1
1
1
1
1
1
1
1
1
1
1
1
1
1
1
1
1
1
1
1
1
1
1
1
1
1
1
1
1
1
1
1
1
1
1
1
1
1
1
1
1
1
1
1
1
1
1
1
1
1
1
1
1
1
1
1
1
1
1
1
1
1
1
1
1
1
1
1
1
1
1
1
1
1
1
1
1
1
1
1
1
1
1
1
1
1
1
1
1
1
1
1
1
1
1
1
1
1
1
1
1
1
1
1
1
1
1
1
1
1
1
1
1
1
1
1
1
1
1
1
1
1
1
1
1
1
1
1
1
1
1
1
1
1
1
1
1
1
1
1
1
1
1
1
1
1
1
1
1
1
1
1
1
1
1
1
1
1
1
1
1
1
1
1
1
1
1
1
1
1
1
1
1
1
1
1
1
1
1
1
1
1
1
1
1
1
1
1
1
1
1
1
1
1
1
1
1
1
1
1
1
1
1
1
1
1
1
1
1
1
1
1
1
1
1
1
1
1
1
1
1
1
1
1
1
1
1
1
1
1
1
1
1
1
1
1
1
1
1
1
1
1
1
1
1
1
1
1
1
1
1
1
1
1
1
1
1
1
1
1
1
1
1
1
1
1
1
1
1
1
1
1
1
1
1
1
1
1
1
1
1
1
1
1
1
1
1
1
1
1
1
1
1
1
1
1
1
1
1
1
1
1
1
1
1
1
1
1
1
1
1
1
1
1
1
1
1
1
1
1
1
1
1
1
1
1
1
1
1
1
1
1
1
1
1
1
1
1
1
1
1
1
1
1
1
1
1
1
1
1
1
1
1
1
1
1
1
1
1
1
1
1
1
1
1
1
1
1
1
1
1
1
1
1
1
1
1
1
1
1
1
1
1
1
1
1
1
1
1
1
1
1
1
1
1
1
1
1
1
1
1
1
1
1
1
1
1
1
1
1
1
1
1
1
1
1
1
1
1
1
1
1
1
1
1
1
1
1
1
1
1
1
1
1
1
1
1
1
1
1
1
1
1
1
1
1
1
1
1
1
1
1
1
1
1
1
1
1
1
1
1
1
1
1
1
1
1
1
1
1
1
1
1
1
1
1
1
1
1
1
1
1
1
1
1
1
1
1
1
1
1
1
1
1
1
1
1
1
1
1
1
1
1
1
1
1
1
1
1
1
1
1
1
1
1
1
1
1
1
1
1
1
1
1
1
1
1
1
1
1
1
1
1
1
1
1
1
1
1
1
1
1
1
1
1
1
1
1
1
1
1
1
1
1
1
1
1
1
1
1
1
1
1
1
1
1
1
1
1
1
1
1
1
1
1
1
1
1
1
1
1
1
1
1
1
1
1
1
1
1
1
1
1
1
1
1
1
1
1
1
1
1
1
1
1
1
1
1
1
1
1
1
1
1
1
1
1
1
1
1
1
1
1
1
1
1
1
1
1
1
1
1
1
1
1
1
1
1
1
1
1
1
1
1
1
1
1
1
1
1
1
1
1
1
1
1
1
1
1
1
1
1
1
1
1
1
1
1
1
1
1
1
1
1
1
1
1
1
1
1
1
1
1
1
1
1
1
1
1
1
1
1
1
1
1
1
1
1
1
1
1
1
1
1
1
1
1
1
1
1
1
1
1
1
1
1
1
1
1
1
1
1
1
1
1
1
1
1
1
1
1
1
1
1
1
1
1
1
1
1
1
1
1
1
1
1
1
1
1
1
1
1
1
1
1
1
1
1
1
1
1
1
1
1
1
1
1
1
1
1
1
1
1
1
1
1
1
1
1
1
1
1
1
1
1
1
1
1
1
1
1
1
1
1
1
1
1
1
1
1
1
1
1
1
1
1
1
1
1
1
1
1
1
1
1
1
1
1
1
1
1
1
1
1
1
1
1
1
1
1
1
1
1
1
1
1
1
1
1
1
1
1
1
1
1
1
1
1
1
1
1
1
1
1
1
1
1
1
1
1
1
1
1
1
1
1
1
1
1
1
1
1
1
1
1
1
1
1
1
1
1
1
1
1
1
VECTORS v double
9.7941212 1.6536068 0
6.6442139 7.4104544 0
9.9116192 -0.21437736 0
9.9989565 0.031547425 0
10.043003 -0.023645188 0
10.043285 -1.3121794e-05 0
10.043287 -3.7331811e-09 0
10.043287 4.1365183e-07 0
10.043287 -3.7086364e-12 0
10.043287 -8.2388844e-12 0
10.043287 4.0603878e-07 0
10.043287 4.6203207e-06 0
10.043287 0.00041944714 0
10.043287 -4.6711206e-06 0
10.043287 1.5197268e-10 0
10.043287 1.2246116e-12 0
10.043287 -5.2322683e-15 0
10.043287 -1.8264126e-12 0
10.043287 2.1215196e-09 0
10.043285 1.4905572e-05 0
10.04303 0.00024125223 0
9.9989613 -0.034244385 0
9.9115693 0.21445683 0
6.6442081 -7.4104426 0
9.7941223 -1.6536071 0
-2.6309671 -13.726705 0
8.0934033 -2.7112718 0
-8.871062 -4.3618207 0
-7.504401 -6.0541946 0
-2.871658 11.248433 0
-10.043223 -4.9479098e-05 0
-10.043216 -2.5398039e-07 0
-10.043216 -1.7640414e-07 0
-10.043216 1.734656e-12 0
-10.043216 6.3295935e-13 0
-10.043216 -1.7238772e-07 0
-10.043216 -2.9142107e-06 0
-10.043216 -0.00030458827 0
-10.043216 2.9497476e-06 0
-10.043216 -9.3243984e-11 0
-10.043216 1.5156964e-12 0
-10.043216 -5.4573935e-15 0
-10.043216 -3.3747532e-12 0
-10.043216 2.5523942e-07 0
-10.043223 4.8183986e-05 0
-2.8577704 -11.248992 0
-7.5020311 6.0566191 0
-8.8692223 4.3648174 0
8.0933995 2.7112786 0
-2.6309672 13.726705 0
-9.3589535 0.10215899 0
0.4717679 -3.2841275 0
-13.023843 4.7706112 0
7.558777 7.2888616 0
10.300845 -0.067511722 0
10.04413 -3.1214688e-05 0
10.044133 -1.7547758e-07 0
10.044133 1.5449804e-07 0
10.044133 2.848498e-13 0
10.044133 1.3770493e-13 0
10.044133 1.5093701e-07 0
10.044133 2.6738151e-06 0
10.044133 0.00028602861 0
10.044133 -2.7041648e-06 0
10.044133 7.1708993e-11 0
10.044133 7.9196453e-13 0
10.044133 -5.3102891e-15 0
10.044133 -3.1101977e-12 0
10.044133 1.7405262e-07 0
10.04413 3.2374715e-05 0
10.302913 0.050818715 0
7.556444 -7.2917277 0
-13.039853 -4.7522881 0
0.47160474 3.2842465 0
-9.3589499 -0.1021643 0
-0.34412322 -3.8296562 0
-6.9798632 -10.485862 0
8.9354509 5.015721 0
-9.2709133 -4.3181087 0
-10.04397 0.0079197165 0
-10.043961 -1.2692184e-05 0
-10.043959 1.2989466e-09 0
-10.043959 -2.1403287e-08 0
-10.043959 2.0097268e-13 0
-10.043959 -3.0198612e-13 0
-10.043959 -2.0802896e-08 0
-10.043959 -7.5206361e-07 0
-10.043959 -0.00011207241 0
-10.043959 7.6268751e-07 0
-10.043959 -8.9175576e-12 0
-10.043959 9.7900453e-13 0
-10.043959 -4.7749418e-15 0
-10.043959 -1.1503237e-12 0
-10.043959 -5.6732452e-10 0
-10.043961 1.2217334e-05 0
-10.043972 -0.00018798628 0
-9.270518 4.3192954 0
8.9337082 -5.0194231 0
-6.9798676 10.485861 0
-0.34412313 3.8296562 0
5.4317888 5.744811 0
-9.5824863 2.2394648 0
-8.6567246 -5.2556454 0
9.6700454 3.4978239 0
10.045309 -0.0071750169 0
10.045461 6.8767306e-06 0
10.045464 -1.0812685e-09 0
10.045464 1.7460359e-08 0
10.045464 1.3267524e-13 0
10.045464 -1.7558379e-13 0
10.045464 1.6980575e-08 0
10.045464 6.4676673e-07 0
10.045464 9.9620499e-05 0
10.045464 -6.5424474e-07 0
10.045464 4.0520785e-12 0
10.045464 6.1769215e-13 0
10.045464 -4.5987192e-15 0
10.045464 -3.8913041e-13 0
10.045464 2.2525176e-10 0
10.045461 -6.5050272e-06 0
10.045312 0.00015998047 0
9.6698055 -3.498602 0
-8.6543384 5.259963 0
-9.5824649 -2.2394974 0
5.4317935 -5.744821 0
-1.0872448 -6.3457663 0
-8.2501918 -5.1024226 0
8.6705052 4.7029613 0
-10.045257 0.032845712 0
-10.04523 0.0019794117 0
-10.045229 -1.1398934e-07 0
-10.045229 2.539517e-10 0
-10.045229 -6.6186732e-13 0
-10.045229 6.8411216e-15 0
-10.045229 -3.3913562e-13 0
-10.045229 -2.4056201e-12 0
-10.045229 -6.5481818e-08 0
-10.045229 -1.9623433e-05 0
-10.045229 6.6644002e-08 0
-10.045229 -3.9524476e-14 0
-10.045229 6.7682992e-13 0
-10.045229 -4.4851124e-15 0
-10.045229 -1.801176e-14 0
-10.045229 -1.138666e-11 0
-10.045229 3.2578354e-08 0
-10.04523 -6.9907697e-05 0
-10.045256 -0.033478828 0
8.6679239 -4.7070234 0
-8.2502161 5.1023887 0
-1.0872509 6.3457698 0
-9.0368444 4.0876603 0
3.8209144 -5.4556326 0
-9.9063837 -1.2992336 0
10.046566 -0.030128435 0
10.046878 -0.0017245365 0
10.046884 4.3398891e-08 0
10.046884 -2.816496e-10 0
10.046884 -5.2547781e-13 0
10.046884 5.1885795e-15 0
10.046884 -2.6351308e-13 0
10.046884 2.759812e-12 0
10.046884 5.3622012e-08 0
10.046884 1.664486e-05 0
10.046884 -5.4159849e-08 0
10.046884 7.6825155e-13 0
10.046884 5.2610274e-13 0
10.046884 -4.355913e-15 0
10.046884 6.9798078e-18 0
10.046884 7.1818974e-12 0
10.046884 8.1765901e-09 0
10.046878 6.0618556e-05 0
10.046564 0.030712313 0
-9.9060221 1.3008183 0
3.8202273 5.4562516 0
-9.0368427 -4.0876445 0
4.8370541 -9.9977618 0
-7.5776415 10.570281 0
1.9816809 -3.1363131 0
-10.046561 0.0044715076 0
-10.046569 0.0002463419 0
-10.046569 -3.8282796e-09 0
-10.046569 3.900441e-11 0
-10.046569 -3.3225971e-13 0
-10.046569 4.7475724e-15 0
-10.046569 -1.6917576e-13 0
-10.046569 -3.4862447e-13 0
-10.046569 2.04184e-11 0
-10.046569 -1.2878819e-06 0
-10.046569 2.1498378e-11 0
-10.046569 3.0029284e-13 0
-10.046569 3.3431448e-13 0
-10.046569 -4.2266492e-15 0
-10.046569 -7.6414047e-17 0
-10.046569 -2.0501892e-13 0
-10.046569 -1.3777149e-09 0
-10.046569 -1.788586e-06 0
-10.046561 -0.004655922 0
1.9774769 3.1345256 0
-7.5777931 -10.57019 0
4.8370541 9.9977617 0
-5.84096 6.2252912 0
4.8604949 -1.6433401 0
2.1697174 14.621417 0
10.048024 -0.004123515 0
10.047997 -0.00020932438 0
10.047997 1.4810544e-10 0
10.047997 -4.1677657e-11 0
10.047997 -3.3129944e-13 0
10.047997 4.5995322e-15 0
10.047997 -1.6868234e-13 0
10.047997 -2.7903095e-13 0
10.047997 1.23266e-12 0
10.047997 1.0505941e-06 0
10.047997 1.0001888e-12 0
10.047997 3.7821409e-13 0
10.047997 3.3353444e-13 0
10.047997 -4.0966049e-15 0
10.047997 3.3289836e-17 0
10.047997 3.2901413e-14 0
10.047997 1.2778815e-09 0
10.047997 3.616713e-06 0
10.048024 0.0042853432 0
2.1744514 -14.621289 0
4.8606191 1.6432486 0
-5.8409601 -6.2252917 0
-10.002376 0.0056393384 0
-4.0719367 -8.3728509 0
-10.018708 0.74419483 0
-10.047614 -0.00015865258 0
-10.047605 1.267657e-05 0
-10.047605 -6.933755e-11 0
-10.047605 2.3980715e-13 0
-10.047605 -3.0429149e-13 0
-10.047605 4.454055e-15 0
-10.047605 -1.5504843e-13 0
-10.047605 -3.0429372e-13 0
-10.047605 -6.393804e-13 0
-10.047605 -9.2181075e-13 0
-10.047605 6.160249e-13 0
-10.047605 3.0073707e-13 0
-10.047605 3.0639192e-13 0
-10.047605 -3.9672462e-15 0
-10.047605 -1.935809e-17 0
-10.047605 -1.4831465e-14 0
-10.047605 1.2664048e-11 0
-10.047605 -9.8259804e-08 0
-10.047614 0.00013237897 0
-10.018645 -0.74519208 0
-4.0719357 8.3728457 0
-10.002376 -0.0056393372 0
-11.373717 -0.98476616 0
5.2153297 7.3484546 0
10.022045 -0.64456555 0
10.048466 9.7850993e-05 0
10.048488 -1.0799876e-05 0
10.048488 -1.1363204e-10 0
10.048488 -5.1831652e-13 0
10.048488 -1.5544388e-13 0
10.048488 4.3074322e-15 0
10.048488 -8.0518535e-14 0
10.048488 -1.5364261e-13 0
10.048488 -3.2284625e-13 0
10.048488 -4.914095e-14 0
10.048488 1.553109e-13 0
10.048488 1.5369129e-13 0
10.048488 1.5745433e-13 0
10.048488 -3.8377147e-15 0
10.048488 -1.6099219e-17 0
10.048488 8.7259631e-15 0
10.048488 -2.1653273e-11 0
10.048488 5.3634271e-07 0
10.048466 -7.5681208e-05 0
10.02198 0.64540309 0
5.2153318 -7.3484536 0
-11.37372 0.98476981 0
-10.000857 0.0061238119 0
-10.029897 0.061631617 0
-10.04911 0.023789254 0
-10.048251 -7.8428886e-05 0
-10.048247 2.2660823e-08 0
-10.048247 -1.3323571e-12 0
-10.048247 -3.3582727e-14 0
-10.048247 -2.0908545e-13 0
-10.048247 4.1610901e-15 0
-10.048247 -1.0724142e-13 0
-10.048247 -2.0736926e-13 0
-10.048247 -3.0750546e-13 0
-10.048247 -4.1773687e-13 0
-10.048247 3.1082448e-13 0
-10.048247 2.0738931e-13 0
-10.048247 2.110222e-13 0
-10.048247 -3.7077286e-15 0
-10.048247 -1.3882796e-17 0
-10.048247 -8.7528413e-16 0
-10.048247 -1.4238692e-12 0
-10.048247 -1.665866e-08 0
-10.048251 7.6965642e-05 0
-10.04911 -0.023838439 0
-10.029897 -0.061631689 0
-10.000857 -0.0061238117 0
-10.000012 0.0058548265 0
-10.000261 0.00031318342 0
10.04398 -0.020481637 0
10.046168 5.3100526e-05 0
10.046173 -1.7510823e-08 0
10.046173 4.7588317e-12 0
10.046173 -7.7939349e-15 0
10.046173 -2.9838698e-14 0
10.046173 4.0167951e-15 0
10.046173 -1.7522843e-14 0
10.046173 -2.8185925e-14 0
10.046173 -3.8845628e-14 0
10.046173 -5.9699931e-14 0
10.046173 4.2049709e-14 0
10.046173 2.819931e-14 0
10.046173 3.1705943e-14 0
10.046173 -3.5796346e-15 0
10.046173 -1.2761034e-17 0
10.046173 6.5473453e-16 0
10.046173 -3.5114977e-12 0
10.046173 1.263926e-08 0
10.046168 -5.1906142e-05 0
10.04398 0.020521759 0
-10.000261 -0.00031318325 0
-10.000012 -0.0058548266 0
-10 0.0058449768 0
-10.00001 2.5579221e-05 0
-10.000086 5.3396587e-06 0
-10.000091 9.0618555e-08 0
-10.000091 5.4369872e-11 0
-10.000091 -3.9534245e-14 0
-10.000091 2.2860783e-17 0
-10.000091 -1.6653241e-15 0
-10.000091 3.9160462e-15 0
-10.000091 -3.3708353e-15 0
-10.000091 -5.6427438e-17 0
-10.000091 3.2654015e-15 0
-10.000091 -3.351175e-15 0
-10.000091 -1.4099932e-16 0
-10.000091 6.7011544e-17 0
-10.000091 3.4852163e-15 0
-10.000091 -3.4900383e-15 0
-10.000091 -1.2078999e-17 0
-10.000091 1.1346897e-16 0
-10.000091 4.0161204e-14 0
-10.000091 -5.4391923e-11 0
-10.000091 -9.0616788e-08 0
-10.000086 -5.3396567e-06 0
-10.00001 -2.557922e-05 0
-10 -0.0058449768 0
-10 0.005844796 0
-10 1.8808418e-05 0
-10.000001 -1.051226e-07 0
-10.000001 -2.0660183e-10 0
-10.000001 1.3755693e-12 0
-10.000001 1.1625849e-15 0
-10.000001 -6.5752591e-18 0
-10.000001 -1.6646303e-15 0
-10.000001 3.9142073e-15 0
-10.000001 -3.369662e-15 0
-10.000001 -5.6630889e-17 0
-10.000001 3.264056e-15 0
-10.000001 -3.3498882e-15 0
-10.000001 -1.4121679e-16 0
-10.000001 6.7263175e-17 0
-10.000001 3.4838087e-15 0
-10.000001 -3.4886849e-15 0
-10.000001 -1.2057345e-17 0
-10.000001 1.3494451e-16 0
-10.000001 1.6323144e-15 0
-10.000001 -1.3773501e-12 0
-10.000001 2.0658962e-10 0
-10.000001 1.0512257e-07 0
-10 -1.8808418e-05 0
-10 -0.005844796 0
-10 0.005844796 0
-10 1.8707188e-05 0
-10 -2.0637567e-07 0
-10 -2.2293947e-10 0
-10 1.3433121e-12 0
-10 1.163671e-15 0
-10 -6.4962262e-18 0
-10 -1.6650886e-15 0
-10 3.9143226e-15 0
-10 -3.3693055e-15 0
-10 -5.6490111e-17 0
-10 3.2637259e-15 0
-10 -3.3493878e-15 0
-10 -1.4107306e-16 0
-10 6.7513814e-17 0
-10 3.4838421e-15 0
-10 -3.4885235e-15 0
-10 -1.2044405e-17 0
-10 1.3485981e-16 0
-10 1.6296876e-15 0
-10 -1.3448042e-12 0
-10 2.2293822e-10 0
-10 2.0637567e-07 0
-10 -1.8707188e-05 0
-10 -0.005844796 0
-10 0.005844796 0
-10 1.8707188e-05 0
-10 -2.0637569e-07 0
-10 -2.2293647e-10 0
-10 1.3433123e-12 0
-10 1.1635059e-15 0
-10 -6.6086316e-18 0
-10 -1.6654887e-15 0
-10 3.9145341e-15 0
-10 -3.3687554e-15 0
-10 -5.6447538e-17 0
-10 3.2637925e-15 0
-10 -3.349809e-15 0
-10 -1.4093756e-16 0
-10 6.6910461e-17 0
-10 3.4838811e-15 0
-10 -3.4886012e-15 0
-10 -1.2041353e-17 0
-10 1.3479631e-16 0
-10 1.6297888e-15 0
-10 -1.3448038e-12 0
-10 2.2293521e-10 0
-10 2.0637568e-07 0
-10 -1.8707188e-05 0
-10 -0.005844796 0
-10 0.005844796 0
-10 1.8707188e-05 0
-10 -2.0637569e-07 0
-10 -2.2293647e-10 0
-10 1.3433124e-12 0
-10 1.1634757e-15 0
-10 -6.6294482e-18 0
-10 -1.6646301e-15 0
-10 3.9145341e-15 0
-10 -3.3696141e-15 0
-10 -5.6447538e-17 0
-10 3.2640787e-15 0
-10 -3.3498177e-15 0
-10 -1.4093756e-16 0
-10 6.6910461e-17 0
-10 3.4838811e-15 0
-10 -3.4886012e-15 0
-10 -1.2041353e-17 0
-10 1.3479631e-16 0
-10 1.6297882e-15 0
-10 -1.3448039e-12 0
-10 2.2293521e-10 0
-10 2.0637568e-07 0
-10 -1.8707188e-05 0
-10 -0.005844796 0
-10 0.005844796 0
-10 1.8707188e-05 0
-10 -2.0637569e-07 0
-10 -2.2293647e-10 0
-10 1.3433125e-12 0
-10 1.1634799e-15 0
-10 -6.631183e-18 0
-10 -1.6646301e-15 0
-10 3.9145341e-15 0
-10 -3.3696141e-15 0
-10 -5.6447538e-17 0
-10 3.2640787e-15 0
-10 -3.3501039e-15 0
-10 -1.4093756e-16 0
-10 6.6910461e-17 0
-10 3.4838811e-15 0
-10 -3.4886012e-15 0
-10 -1.2041353e-17 0
-10 1.3479631e-16 0
-10 1.6297888e-15 0
-10 -1.3448039e-12 0
-10 2.2293521e-10 0
-10 2.0637568e-07 0
-10 -1.8707188e-05 0
-10 -0.005844796 0
-10 0.005844796 0
-10 1.8707188e-05 0
-10 -2.0637569e-07 0
-10 -2.2293647e-10 0
-10 1.343312e-12 0
-10 1.1637711e-15 0
-10 -6.5286779e-18 0
-10 -1.6650408e-15 0
-10 3.9144755e-15 0
-10 -3.3695825e-15 0
-10 -5.6680884e-17 0
-10 3.2638805e-15 0
-10 -3.3499265e-15 0
-10 -1.4111784e-16 0
-10 6.7245045e-17 0
-10 3.4836639e-15 0
-10 -3.4884328e-15 0
-10 -1.2060739e-17 0
-10 1.3483388e-16 0
-10 1.6294067e-15 0
-10 -1.3448039e-12 0
-10 2.2293521e-10 0
-10 2.0637568e-07 0
-10 -1.8707188e-05 0
-10 -0.005844796 0
-10 0.005844796 0
-10 1.8707188e-05 0
-10 -2.0637569e-07 0
-10 -2.2293647e-10 0
-10 1.3433121e-12 0
-10 1.1640272e-15 0
-10 -6.625076e-18 0
-10 -1.6660141e-15 0
-10 3.9148391e-15 0
-10 -3.3697912e-15 0
-10 -5.6759012e-17 0
-10 3.2638465e-15 0
-10 -3.3510362e-15 0
-10 -1.400413e-16 0
-10 6.7650715e-17 0
-10 3.4840425e-15 0
-10 -3.4887566e-15 0
-10 -1.2047543e-17 0
-10 1.3506593e-16 0
-10 1.628281e-15 0
-10 -1.3448044e-12 0
-10 2.2293522e-10 0
-10 2.0637568e-07 0
-10 -1.8707188e-05 0
-10 -0.005844796 0
-10 0.005844796 0
-10 1.8707188e-05 0
-10 -2.0637568e-07 0
-10 -2.2293628e-10 0
-10 1.3433045e-12 0
-10 1.1635539e-15 0
-10 -6.4995269e-18 0
-10 -1.6646845e-15 0
-10 3.914527e-15 0
-10 -3.3693585e-15 0
-10 -5.6219728e-17 0
-10 3.2645095e-15 0
-10 -3.3494634e-15 0
-10 -1.4153686e-16 0
-10 6.7013807e-17 0
-10 3.4836557e-15 0
-10 -3.489046e-15 0
-10 -1.2049424e-17 0
-10 1.3541498e-16 0
-10 1.629273e-15 0
-10 -1.3448039e-12 0
-10 2.2293504e-10 0
-10 2.0637568e-07 0
-10 -1.8707188e-05 0
-10 -0.005844796 0
-9.9999998 0.0058447998 0
-9.9999998 1.8707098e-05 0
-9.9999998 -2.0638037e-07 0
-9.9999998 -2.2292983e-10 0
-9.9999998 1.3433292e-12 0
-9.9999998 1.1636224e-15 0
-9.9999998 -6.4543928e-18 0
-9.9999998 -1.6644689e-15 0
-9.9999998 3.9144496e-15 0
-9.9999998 -3.3692274e-15 0
-9.9999998 -5.6090195e-17 0
-9.9999998 3.2646664e-15 0
-9.9999998 -3.3488601e-15 0
-9.9999998 -1.4210824e-16 0
-9.9999998 6.6919028e-17 0
-9.9999998 3.4833684e-15 0
-9.9999998 -3.4891017e-15 0
-9.9999998 -1.2048966e-17 0
-9.9999998 1.3545351e-16 0
-9.9999998 1.6294096e-15 0
-9.9999998 -1.3448321e-12 0
-9.9999998 2.2292846e-10 0
-9.9999998 2.0638037e-07 0
-9.9999998 -1.8707098e-05 0
-9.9999998 -0.0058447998 0
-10.00002 0.0058453722 0
-10.000019 1.8775468e-05 0
-10.000019 -2.0653755e-07 0
-10.000019 -2.2346246e-10 0
-10.000019 1.3444575e-12 0
-10.000019 1.1658735e-15 0
-10.000019 -6.7312243e-18 0
-10.000019 -1.6664711e-15 0
-10.000019 3.9148154e-15 0
-10.000019 -3.3700726e-15 0
-10.000019 -5.7437305e-17 0
-10.000019 3.2629657e-15 0
-10.000019 -3.3527659e-15 0
-10.000019 -1.3946262e-16 0
-10.000019 6.8346874e-17 0
-10.000019 3.4851452e-15 0
-10.000019 -3.4896918e-15 0
-10.000019 -1.2049932e-17 0
-10.000019 1.3581011e-16 0
-10.000019 1.6265444e-15 0
-10.000019 -1.3460212e-12 0
-10.000019 2.2346107e-10 0
-10.000019 2.0653755e-07 0
-10.000019 -1.8775468e-05 0
-10.00002 -0.0058453722 0
-10.005522 0.0055224699 0
-10.005845 2.0395677e-05 0
-10.005845 -2.004999e-07 0
-10.005845 -2.4355772e-10 0
-10.005845 1.3135278e-12 0
-10.005845 1.2368334e-15 0
-10.005845 -7.1525927e-18 0
-10.005845 -1.6269426e-15 0
-10.005845 3.815237e-15 0
-10.005845 -3.285457e-15 0
-10.005845 -5.8514402e-17 0
-10.005845 3.1768573e-15 0
-10.005845 -3.2732715e-15 0
-10.005845 -1.3261505e-16 0
-10.005845 6.9730506e-17 0
-10.005845 3.3990638e-15 0
-10.005845 -3.4017176e-15 0
-10.005845 -1.204957e-17 0
-10.005845 1.3335669e-16 0
-10.005845 1.501699e-15 0
-10.005845 -1.3148865e-12 0
-10.005845 2.4355533e-10 0
-10.005845 2.0049991e-07 0
-10.005845 -2.0395677e-05 0
-10.005522 -0.0055224699 0
-9.7941212 1.6536068 0
-6.6442143 7.4104392 0
-9.9116192 -0.214416 0
-9.9989576 0.034639693 0
-10.043002 0.023254872 0
-10.043285 -1.6705505e-05 0
-10.043287 -5.2319831e-10 0
-10.043287 -4.3087427e-07 0
-10.043287 5.2948364e-12 0
-10.043287 8.3775644e-12 0
-10.043287 -4.2310828e-07 0
-10.043287 -4.6577741e-06 0
-10.043287 -0.00042027663 0
-10.043287 4.7088062e-06 0
-10.043287 -1.4922215e-10 0
-10.043287 1.8995851e-12 0
-10.043287 -5.2341856e-15 0
-10.043287 -1.8263805e-12 0
-10.043287 2.1213303e-09 0
-10.043285 1.4905719e-05 0
-10.04303 0.00024037841 0
-9.9989605 -0.031633243 0
-9.9115705 0.21442122 0
-6.6442082 -7.4104695 0
-9.7941223 -1.6536072 0
2.6309671 -13.726705 0
-8.0934042 -2.7112707 0
8.8710792 -4.3617879 0
7.5024202 -6.0564452 0
2.841733 11.250055 0
10.043223 -4.6779638e-05 0
10.043216 -2.5673236e-07 0
10.043216 3.9894573e-07 0
10.043216 -4.8983768e-12 0
10.043216 -8.0080486e-12 0
10.043216 3.9293495e-07 0
10.043216 3.4145733e-06 0
10.043216 0.00031660801 0
10.043216 -3.4509319e-06 0
10.043216 9.1456783e-11 0
10.043216 1.2543737e-12 0
10.043216 -5.4597532e-15 0
10.043216 -3.1652251e-12 0
10.043216 2.5523931e-07 0
10.043223 4.8183761e-05 0
2.8577735 -11.248869 0
7.5036184 6.0548063 0
8.8692603 4.3647577 0
-8.0933982 2.7112803 0
2.6309672 13.726705 0
9.3589533 0.10215927 0
-0.47176654 -3.2841303 0
13.05828 4.7324228 0
-7.5568168 7.2910568 0
-10.305374 -0.032672891 0
-10.04413 -3.3659436e-05 0
-10.044133 -1.7243615e-07 0
-10.044133 -3.7703848e-07 0
-10.044133 3.0503972e-12 0
-10.044133 4.9751292e-12 0
-10.044133 -3.7150177e-07 0
-10.044133 -3.1773137e-06 0
-10.044133 -0.00029829864 0
-10.044133 3.2084005e-06 0
-10.044133 -6.8831333e-11 0
-10.044133 1.3178212e-12 0
-10.044133 -5.3122423e-15 0
-10.044133 -3.3473188e-12 0
-10.044133 1.7405165e-07 0
-10.04413 3.2374572e-05 0
-10.302903 0.050814069 0
-7.558016 -7.2899752 0
13.03985 -4.7523999 0
-0.47161054 3.284242 0
9.3589502 -0.10216387 0
0.34412323 -3.8296562 0
6.9798633 -10.485862 0
-8.9354665 5.0156928 0
9.2700535 -4.3202484 0
10.043969 -0.0088627041 0
10.043961 -1.1655758e-05 0
10.043959 -3.3169797e-10 0