# vtk DataFile Version 4.0
hesp visualization file
ASCII
DATASET UNSTRUCTURED_GRID
POINTS 1250 double
33.347134 2.3696903 4
31.296285 3.865572 4
31.850324 3.800353 4
31.266663 4.4807205 4
30.68214 6.3172547 4
30.351755 6.734536 4
30.351897 7.8572318 4
30.351897 8.9796976 4
30.351897 10.102158 4
30.351897 11.22462 4
30.351897 12.347084 4
30.351897 13.469558 4
30.351895 14.593287 4
30.351897 15.714455 4
30.351897 16.836931 4
30.351897 17.959393 4
30.351897 19.081855 4
30.351897 20.204317 4
30.351897 21.326781 4
30.351834 22.449624 4
30.695407 22.792358 4
31.266647 24.702941 4
31.851415 25.382196 4
31.295859 25.319934 4
33.347073 26.814302 4
30.896165 -3.8397662 4
32.803894 1.7710104 4
30.780813 2.1697127 4
30.215495 4.2038488 4
31.030126 6.4927195 4
31.44265 7.3004468 4
30.974456 7.8571981 4
30.974451 8.9796956 4
30.974451 10.102158 4
30.974451 11.22462 4
30.974451 12.347082 4
30.974451 13.469535 4
30.974452 14.590983 4
30.974451 15.714479 4
30.974451 16.836931 4
30.974451 17.959393 4
30.974451 19.081855 4
30.974451 20.204317 4
30.974456 21.326815 4
31.442631 21.884495 4
31.030601 22.691251 4
30.215796 24.978854 4
30.779591 27.013384 4
32.803893 27.413005 4
30.896165 33.023779 4
30.354071 0.96059246 4
31.279889 2.8524844 4
31.234269 5.021995 4
32.301913 5.4014428 4
31.179143 5.5828737 4
31.178874 6.731397 4
31.678504 7.8572042 4
31.678513 8.9796969 4
31.678513 10.102158 4
31.678513 11.22462 4
31.678513 12.347083 4
31.678513 13.469553 4
31.678511 14.592912 4
31.678513 15.71446 4
31.678513 16.836931 4
31.678513 17.959393 4
31.678513 19.081855 4
31.678513 20.204317 4
31.678504 21.326809 4
31.179173 22.452899 4
31.178944 23.590557 4
32.300532 23.787376 4
31.22413 24.173188 4
31.279778 26.33164 4
30.35407 28.22342 4
31.734339 -0.91540757 4
31.276523 -0.75551374 4
32.979085 3.894527 4
31.522709 4.0447938 4
32.305715 5.6781542 4
32.300669 6.7348755 4
32.30066 7.8572336 4
32.300661 8.9796962 4
32.300661 10.102158 4
32.300661 11.22462 4
32.300661 12.347082 4
32.300661 13.469541 4
32.300661 14.591536 4
32.300661 15.714472 4
32.300661 16.836931 4
32.300661 17.959393 4
32.300661 19.081855 4
32.300661 20.204317 4
32.30066 21.32678 4
32.300669 22.449135 4
32.303142 23.531797 4
31.523585 25.142338 4
32.978241 25.28804 4
31.276522 29.939527 4
31.734339 30.099421 4
34.539736 3.3180233 4
30.339276 2.97622 4
31.802141 2.479242 4
33.419961 5.4381379 4
33.026957 5.5651209 4
33.005397 6.7347121 4
33.005431 7.8572346 4
33.005431 8.9796965 4
33.005431 10.102158 4
33.005431 11.22462 4
33.005431 12.347083 4
33.005431 13.469547 4
33.005431 14.592379 4
33.005431 15.714466 4
33.005431 16.836931 4
33.005431 17.959393 4
33.005431 19.081855 4
33.005431 20.204317 4
33.005431 21.326779 4
33.005397 22.449303 4
33.03111 23.593386 4
33.419889 23.74588 4
31.802542 26.705109 4
30.339269 26.207787 4
34.539734 25.865983 4
31.086299 0.033342296 4
32.990331 0.44970769 4
34.825287 4.1435965 4
33.326305 4.3511988 4
33.626757 5.6218244 4
33.626882 6.7347661 4
33.626882 7.8572343 4
33.626882 8.9796964 4
33.626882 10.102158 4
33.626882 11.22462 4
33.626882 12.347083 4
33.626882 13.469544 4
33.626882 14.591886 4
33.626882 15.714469 4
33.626882 16.836931 4
33.626882 17.959393 4
33.626882 19.081855 4
33.626882 20.204317 4
33.626882 21.326779 4
33.626882 22.449247 4
33.626728 23.571795 4
33.325842 24.833827 4
34.824725 25.04016 4
32.990386 28.734319 4
31.086297 29.150671 4
31.942302 2.1778138 4
35.925985 2.4995014 4
32.951206 3.1532208 4
33.830752 4.4727729 4
34.33233 5.6049294 4
34.332574 6.7347755 4
34.332575 7.8572343 4
34.332575 8.9796964 4
34.332575 10.102158 4
34.332575 11.22462 4
34.332575 12.347083 4
34.332575 13.469545 4
34.332575 14.592093 4
34.332575 15.714468 4
34.332575 16.836931 4
34.332575 17.959393 4
34.332575 19.081855 4
34.332575 20.204317 4
34.332575 21.326779 4
34.332574 22.449238 4
34.332455 23.571814 4
33.830756 24.711577 4
32.95125 26.03108 4
35.925872 26.684547 4
31.942376 27.006515 4
36.632725 -2.0153128 4
33.753548 4.1574475 4
35.417106 3.0165383 4
34.83358 4.812713 4
34.953227 5.6142094 4
34.953211 6.7347721 4
34.953211 7.8572343 4
34.953211 8.9796964 4
34.953211 10.102158 4
34.953211 11.22462 4
34.953211 12.347083 4
34.953211 13.469545 4
34.953211 14.591991 4
34.953211 15.714469 4
34.953211 16.836931 4
34.953211 17.959393 4
34.953211 19.081855 4
34.953211 20.204317 4
34.953211 21.326779 4
34.953211 22.449241 4
34.953223 23.571646 4
34.836893 24.369848 4
35.416574 26.167204 4
33.754689 25.025881 4
36.632725 31.199326 4
33.627698 2.9654058 4
35.551917 2.2248225 4
35.513672 4.1643267 4
36.008657 5.2390246 4
35.659828 5.6108919 4
35.659786 6.734772 4
35.659786 7.8572343 4
35.659786 8.9796964 4
35.659786 10.102158 4
35.659786 11.22462 4
35.659786 12.347083 4
35.659786 13.469545 4
35.659786 14.592017 4
35.659786 15.714469 4
35.659786 16.836931 4
35.659786 17.959393 4
35.659786 19.081855 4
35.659786 20.204317 4
35.659786 21.326779 4
35.659786 22.449241 4
35.659832 23.571843 4
36.008378 23.943785 4
35.511219 25.022151 4
35.551921 26.959153 4
33.627698 26.218607 4
33.524006 1.1249357 4
35.577614 0.33610905 4
35.361484 3.4557173 4
36.279691 4.4967529 4
36.279623 5.6124326 4
36.279666 6.7347721 4
36.279666 7.8572343 4
36.279666 8.9796964 4
36.279666 10.102158 4
36.279666 11.22462 4
36.279666 12.347083 4
36.279666 13.469545 4
36.279666 14.592006 4
36.279666 15.714469 4
36.279666 16.836931 4
36.279666 17.959393 4
36.279666 19.081855 4
36.279666 20.204317 4
36.279666 21.326779 4
36.279666 22.449241 4
36.279623 23.571771 4
36.279694 24.687073 4
35.361494 25.728164 4
35.577614 28.847903 4
33.524006 28.059078 4
34.473113 1.0013829 4
37.426023 2.5653042 4
37.630339 3.4880921 4
36.984374 4.4856019 4
36.986864 5.6121882 4
36.986874 6.7347722 4
36.986874 7.8572343 4
36.986874 8.9796964 4
36.986874 10.102158 4
36.986874 11.22462 4
36.986874 12.347083 4
36.986874 13.469545 4
36.986874 14.592007 4
36.986874 15.714469 4
36.986874 16.836931 4
36.986874 17.959393 4
36.986874 19.081855 4
36.986874 20.204317 4
36.986874 21.326779 4
36.986874 22.449241 4
36.986864 23.571702 4
36.984368 24.698542 4
37.630353 25.695859 4
37.426217 26.618824 4
34.473112 28.182631 4
35.76817 1.1244892 4
36.004857 2.2027461 4
37.310146 4.3912916 4
37.605659 4.4888481 4
37.606214 5.6123181 4
37.606214 6.7347723 4
37.606214 7.8572343 4
37.606214 8.9796964 4
37.606214 10.102158 4
37.606214 11.22462 4
37.606214 12.347083 4
37.606214 13.469545 4
37.606214 14.592007 4
37.606214 15.714469 4
37.606214 16.836931 4
37.606214 17.959393 4
37.606214 19.081855 4
37.606214 20.204317 4
37.606214 21.326779 4
37.606214 22.449241 4
37.606214 23.571703 4
37.605659 24.695144 4
37.310033 24.792801 4
36.004908 26.981352 4
35.76817 28.059524 4
36.892003 1.125087 4
36.892151 2.2456764 4
37.83501 3.3456918 4
38.313526 4.4902047 4
38.313665 5.6123046 4
38.313666 6.7347723 4
38.313666 7.8572343 4
38.313666 8.9796964 4
38.313666 10.102158 4
38.313666 11.22462 4
38.313666 12.347083 4
38.313666 13.469545 4
38.313666 14.592007 4
38.313666 15.714469 4
38.313666 16.836931 4
38.313666 17.959393 4
38.313666 19.081855 4
38.313666 20.204317 4
38.313666 21.326779 4
38.313666 22.449241 4
38.313665 23.571704 4
38.313526 24.693822 4
37.834906 25.838299 4
36.892151 26.938337 4
36.892003 28.058926 4
38.014468 1.1250848 4
38.014442 2.2449687 4
38.933085 3.3837148 4
38.9328 4.4898091 4
38.9328 5.6123101 4
38.9328 6.7347723 4
38.9328 7.8572343 4
38.9328 8.9796964 4
38.9328 10.102158 4
38.9328 11.22462 4
38.9328 12.347083 4
38.9328 13.469545 4
38.9328 14.592007 4
38.9328 15.714469 4
38.9328 16.836931 4
38.9328 17.959393 4
38.9328 19.081855 4
38.9328 20.204317 4
38.9328 21.326779 4
38.9328 22.449241 4
38.9328 23.571703 4
38.9328 24.694203 4
38.933086 25.800267 4
38.014442 26.939045 4
38.014468 28.058928 4
39.136931 1.1250843 4
39.136928 2.2449423 4
39.638461 3.3574692 4
39.639113 4.4898721 4
39.639115 5.6123103 4
39.639115 6.7347723 4
39.639115 7.8572343 4
39.639115 8.9796964 4
39.639115 10.102158 4
39.639115 11.22462 4
39.639115 12.347083 4
39.639115 13.469545 4
39.639115 14.592007 4
39.639115 15.714469 4
39.639115 16.836931 4
39.639115 17.959393 4
39.639115 19.081855 4
39.639115 20.204317 4
39.639115 21.326779 4
39.639115 22.449241 4
39.639115 23.571703 4
39.639113 24.694142 4
39.638459 25.826563 4
39.136928 26.939071 4
39.136931 28.058929 4
40.259393 1.1250842 4
40.259392 2.2449359 4
40.25938 3.3673863 4
40.25938 4.4898482 4
40.25938 5.6123102 4
40.25938 6.7347723 4
40.25938 7.8572343 4
40.25938 8.9796964 4
40.25938 10.102158 4
40.25938 11.22462 4
40.25938 12.347083 4
40.25938 13.469545 4
40.25938 14.592007 4
40.25938 15.714469 4
40.25938 16.836931 4
40.25938 17.959393 4
40.25938 19.081855 4
40.25938 20.204317 4
40.25938 21.326779 4
40.25938 22.449241 4
40.25938 23.571703 4
40.25938 24.694165 4
40.25938 25.816627 4
40.259392 26.939077 4
40.259393 28.058929 4
41.381855 1.1250842 4
41.381855 2.2449356 4
41.381855 3.3673861 4
41.381855 4.4898482 4
41.381855 5.6123102 4
41.381855 6.7347723 4
41.381855 7.8572343 4
41.381855 8.9796964 4
41.381855 10.102158 4
41.381855 11.22462 4
41.381855 12.347083 4
41.381855 13.469545 4
41.381855 14.592007 4
41.381855 15.714469 4
41.381855 16.836931 4
41.381855 17.959393 4
41.381855 19.081855 4
41.381855 20.204317 4
41.381855 21.326779 4
41.381855 22.449241 4
41.381855 23.571703 4
41.381855 24.694165 4
41.381855 25.816627 4
41.381855 26.939078 4
41.381855 28.058929 4
42.504317 1.1250842 4
42.504317 2.2449356 4
42.504317 3.3673861 4
42.504317 4.4898482 4
42.504317 5.6123102 4
42.504317 6.7347723 4
42.504317 7.8572343 4
42.504317 8.9796964 4
42.504317 10.102158 4
42.504317 11.22462 4
42.504317 12.347083 4
42.504317 13.469545 4
42.504317 14.592007 4
42.504317 15.714469 4
42.504317 16.836931 4
42.504317 17.959393 4
42.504317 19.081855 4
42.504317 20.204317 4
42.504317 21.326779 4
42.504317 22.449241 4
42.504317 23.571703 4
42.504317 24.694165 4
42.504317 25.816627 4
42.504317 26.939078 4
42.504317 28.058929 4
43.626779 1.1250842 4
43.626779 2.2449356 4
43.626779 3.3673861 4
43.626779 4.4898482 4
[...]
POINT_DATA 1250
SCALARS m double
LOOKUP_TABLE default
1
1
1
1
1
1
1
1
1
1
1
1
1
1
1
1
1
1
1
1
1
1
1
1
1
1
1
1
1
1
1
1
1
1
1
1
1
1
1
1
1
1
1
1
1
1
1
1
1
1
1
1
1
1
1
1
1
1
1
1
1
1
1
1
1
1
1
1
1
1
1
1
1
1
1
1
1
1
1
1
1
1
1
1
1
1
1
1
1
1
1
1
1
1
1
1
1
1
1
1
1
1
1
1
1
1
1
1
1
1
1
1
1
1
1
1
1
1
1
1
1
1
1
1
1
1
1
1
1
1
1
1
1
1
1
1
1
1
1
1
1
1
1
1
1
1
1
1
1
1
1
1
1
1
1
1
1
1
1
1
1
1
1
1
1
1
1
1
1
1
1
1
1
1
1
1
1
1
1
1
1
1
1
1
1
1
1
1
1
1
1
1
1
1
1
1
1
1
1
1
1
1
1
1
1
1
1
1
1
1
1
1
1
1
1
1
1
1
1
1
1
1
1
1
1
1
1
1
1
1
1
1
1
1
1
1
1
1
1
1
1
1
1
1
1
1
1
1
1
1
1
1
1
1
1
1
1
1
1
1
1
1
1
1
1
1
1
1
1
1
1
1
1
1
1
1
1
1
1
1
1
1
1
1
1
1
1
1
1
1
1
1
1
1
1
1
1
1
1
1
1
1
1
1
1
1
1
1
1
1
1
1
1
1
1
1
1
1
1
1
1
1
1
1
1
1
1
1
1
1
1
1
1
1
1
1
1
1
1
1
1
1
1
1
1
1
1
1
1
1
1
1
1
1
1
1
1
1
1
1
1
1
1
1
1
1
1
1
1
1
1
1
1
1
1
1
1
1
1
1
1
1
1
1
1
1
1
1
1
1
1
1
1
1
1
1
1
1
1
1
1
1
1
1
1
1
1
1
1
1
1
1
1
1
1
1
1
1
1
1
1
1
1
1
1
1
1
1
1
1
1
1
1
1
1
1
1
1
1
1
1
1
1
1
1
1
1
1
1
1
1
1
1
1
1
1
1
1
1
1
1
1
1
1
1
1
1
1
1
1
1
1
1
1
1
1
1
1
1
1
1
1
1
1
1
1
1
1
1
1
1
1
1
1
1
1
1
1
1
1
1
1
1
1
1
1
1
1
1
1
1
1
1
1
1
1
1
1
1
1
1
1
1
1
1
1
1
1
1
1
1
1
1
1
1
1
1
1
1
1
1
1
1
1
1
1
1
1
1
1
1
1
1
1
1
1
1
1
1
1
1
1
1
1
1
1
1
1
1
1
1
1
1
1
1
1
1
1
1
1
1
1
1
1
1
1
1
1
1
1
1
1
1
1
1
1
1
1
1
1
1
1
1
1
1
1
1
1
1
1
1
1
1
1
1
1
1
1
1
1
1
1
1
1
1
1
1
1
1
1
1
1
1
1
1
1
1
1
1
1
1
1
1
1
1
1
1
1
1
1
1
1
1
1
1
1
1
1
1
1
1
1
1
1
1
1
1
1
1
1
1
1
1
1
1
1
1
1
1
1
1
1
1
1
1
1
1
1
1
1
1
1
1
1
1
1
1
1
1
1
1
1
1
1
1
1
1
1
1
1
1
1
1
1
1
1
1
1
1
1
1
1
1
1
1
1
1
1
1
1
1
1
1
1
1
1
1
1
1
1
1
1
1
1
1
1
1
1
1
1
1
1
1
1
1
1
1
1
1
1
1
1
1
1
1
1
1
1
1
1
1
1
1
1
1
1
1
1
1
1
1
1
1
1
1
1
1
1
1
1
1
1
1
1
1
1
1
1
1
1
1
1
1
1
1
1
1
1
1
1
1
1
1
1
1
1
1
1
1
1
1
1
1
1
1
1
1
1
1
1
1
1
1
1
1
1
1
1
1
1
1
1
1
1
1
1
1
1
1
1
1
1
1
1
1
1
1
1
1
1
1
1
1
1
1
1
1
1
1
1
1
1
1
1
1
1
1
1
1
1
1
1
1
1
1
1
1
1
1
1
1
1
1
1
1
1
1
1
1
1
1
1
1
1
1
1
1
1
1
1
1
1
1
1
1
1
1
1
1
1
1
1
1
1
1
1
1
1
1
1
1
1
1
1
1
1
1
1
1
1
1
1
1
1
1
1
1
1
1
1
1
1
1
1
1
1
1
1
1
1
1
1
1
1
1
1
1
1
1
1
1
1
1
1
1
1
1
1
1
1
1
1
1
1
1
1
1
1
1
1
1
1
1
1
1
1
1
1
1
1
1
1
1
1
1
1
1
1
1
1
1
1
1
1
1
1
1
1
1
1
1
1
1
1
1
1
1
1
1
1
1
1
1
1
1
1
1
1
1
1
1
1
1
1
1
1
1
1
1
1
1
1
1
1
1
1
1
1
1
1
1
1
1
1
1
1
1
1
1
1
1
1
1
1
1
1
1
1
1
1
1
1
1
1
1
1
1
1
1
1
1
1
1
1
1
1
1
1
1
1
1
1
1
1
1
1
1
1
1
1
1
1
1
1
1
1
1
1
1
1
1
1
1
1
1
1
1
1
1
1
1
1
1
1
1
1
1
1
1
1
1
1
1
1
1
1
1
1
1
1
1
1
1
1
1
1
1
1
1
1
1
1
1
1
1
1
1
1
1
1
1
1
1
1
1
1
1
1
1
1
1
1
1
1
1
1
1
1
1
1
1
1
1
1
1
1
1
1
1
1
1
1
1
1
1
1
1
1
1
1
1
1
1
1
1
1
1
1
1
1
1
1
1
1
1
1
1
1
1
1
1
1
1
1
1
1
1
1
1
1
1
1
1
1
1
1
1
1
1
1
VECTORS v double
3.5342468 7.4854245 0
-5.7287316 -8.6881265 0
7.6933399 1.5915712 0
10.001661 -0.24531748 0
11.319359 8.1877452 0
10.000641 -0.017059694 0
9.9974889 -9.4666712e-05 0
9.9974618 3.9431823e-05 0
9.9974614 -1.7201505e-09 0
9.9974614 -2.0732517e-09 0
9.9974614 4.1131864e-05 0
9.9974613 0.00046457606 0
9.9973669 0.043356343 0
9.9974615 -0.00047265814 0
9.9974614 3.306397e-08 0
9.9974614 -1.1216829e-10 0
9.9974614 -8.8826165e-11 0
9.9974618 2.4652396e-06 0
9.9974906 9.6291984e-05 0
10.009352 0.027634186 0
11.516978 -9.5325757 0
10.000849 0.24000431 0
7.6851464 -1.7316482 0
-5.8371369 8.6943271 0
3.5336364 -7.4856271 0
-2.6309794 -13.726701 0
8.128061 -2.5828829 0
-5.4322066 -9.7899692 0
-10.131274 1.5178326 0
-1.3437374 -1.2281854 0
9.2150568 13.556694 0
-9.9975111 -0.0028216269 0
-9.9985033 -2.9158679e-05 0
-9.9985039 1.076923e-09 0
-9.9985039 9.6683882e-10 0
-9.9985039 -2.1901184e-05 0
-9.998504 -0.00032567387 0
-9.9984507 -0.033446977 0
-9.9985039 0.00033179119 0
-9.9985039 -2.3675281e-08 0
-9.9985039 3.3425988e-11 0
-9.9985039 -1.7408142e-10 0
-9.9985033 6.7535812e-06 0
-9.9975207 0.0028025682 0
9.2089257 -13.559065 0
-1.3760847 1.2476383 0
-10.128144 -1.542855 0
-5.4452198 9.7798535 0
8.128055 2.5828818 0
-2.6309794 13.726701 0
9.3144482 0.070689792 0
-8.3729347 4.7058158 0
7.3488774 -6.1891005 0
7.4745761 6.5905092 0
-10.001907 -0.40717349 0
-9.4929274 0.50834823 0
9.9961431 -0.0040091179 0
9.9976125 1.5863136e-05 0
9.9976132 -4.7628512e-10 0
9.9976132 -6.5890526e-10 0
9.9976132 1.986726e-05 0
9.9976131 0.00030503957 0
9.9975595 0.031799778 0
9.9976132 -0.00031049829 0
9.9976132 1.9973205e-08 0
9.9976132 -2.9012922e-11 0
9.9976132 -1.3220419e-10 0
9.9976125 4.4165919e-06 0
9.9961576 0.0039740797 0
-9.4673592 -0.51374145 0
-10.002599 0.26396566 0
7.1205256 -4.1429917 0
7.2291289 6.3295344 0
-8.3745369 -4.7044747 0
9.3144447 -0.070701674 0
-0.45729716 -3.6901255 0
-6.8735433 -10.61684 0
-4.7267038 -5.4464333 0
4.5277439 8.1360527 0
-9.77862 2.6610847 0
-9.9982636 0.0030679808 0
-10.000432 -4.9373283e-05 0
-10.000362 -6.5700409e-06 0
-10.000361 1.7285274e-10 0
-10.000361 1.1075375e-10 0
-10.000361 -5.0063689e-06 0
-10.000361 -0.00011598194 0
-10.000351 -0.014918439 0
-10.000361 0.00011837699 0
-10.000361 -7.4766833e-09 0
-10.000361 1.3963815e-11 0
-10.000361 -4.1917191e-11 0
-10.000362 1.430443e-06 0
-10.000432 4.9471791e-05 0
-9.9982621 -0.0031722461 0
-9.5533988 -4.1455894 0
4.6591818 -7.9595573 0
-4.7461769 5.4094329 0
-6.8735486 10.616839 0
-0.45729609 3.6901267 0
5.3968461 5.6123004 0
9.5570495 2.2516566 0
-8.8719717 -4.8043641 0
2.3401871 11.173498 0
10.091184 -1.7323379 0
9.9984352 -0.0024921289 0
9.9988733 9.5238375e-06 0
9.9988857 3.8204997e-06 0
9.9988864 -4.9333602e-11 0
9.9988864 -3.8844931e-11 0
9.9988864 4.2833776e-06 0
9.9988863 0.0001029925 0
9.9988761 0.01354868 0
9.9988864 -0.00010489572 0
9.9988864 5.3094567e-09 0
9.9988864 -9.3676791e-12 0
9.9988864 -3.3419434e-12 0
9.9988857 5.4795566e-07 0
9.9988733 -9.729558e-06 0
9.9984402 0.002563229 0
10.220561 0.8443621 0
2.2212926 -11.081462 0
-8.8705861 4.7808341 0
9.5569716 -2.2517013 0
5.3968201 -5.6123666 0
-1.1261519 -6.3226293 0
-1.9934904 -10.928123 0
8.7087446 4.7234477 0
-7.7107772 10.795506 0
-9.7945113 0.48552559 0
-10.00237 -0.0002122506 0
-10.002361 8.0050186e-08 0
-10.002361 -4.1461182e-07 0
-10.002361 4.1412709e-12 0
-10.002361 -1.0110039e-12 0
-10.002361 -4.0369244e-07 0
-10.002361 -1.974378e-05 0
-10.002361 -0.0037381273 0
-10.002361 2.0198582e-05 0
-10.002361 -1.2059843e-09 0
-10.002361 3.5497175e-12 0
-10.002361 -7.763288e-13 0
-10.002361 -1.287378e-10 0
-10.002361 4.8916811e-09 0
-10.00237 0.00018914217 0
-9.6769283 -0.27558273 0
-7.7417963 -10.72909 0
8.7042047 -4.7218579 0
-1.9929056 10.92829 0
-1.1261583 6.3226325 0
-0.039248958 -4.4644691 0
2.5014774 0.035348256 0
-9.6387321 -1.2134588 0
-10.048794 -0.28186602 0
9.99311 -0.27309956 0
10.000826 0.00012367092 0
10.000844 -7.5754296e-08 0
10.000844 3.3837223e-07 0
10.000844 -5.3652168e-13 0
10.000844 1.4647576e-12 0
10.000844 3.2947303e-07 0
10.000844 1.6763929e-05 0
10.000844 0.0032586312 0
10.000844 -1.7079546e-05 0
10.000844 7.1137134e-10 0
10.000844 -3.0075382e-13 0
10.000844 -8.6589766e-14 0
10.000844 -3.5298223e-11 0
10.000844 7.5974299e-09 0
10.000826 -0.00010624549 0
9.9973329 0.0038338379 0
-10.048035 0.28388178 0
-9.6384309 1.2153602 0
2.4989105 -0.034822254 0
-0.036704989 4.4911008 0
4.8370531 -9.9977527 0
10.630223 2.3250506 0
1.6791604 -3.4040294 0
-8.2911892 9.3390179 0
-10.003296 0.057959367 0
-10.003902 -8.4929551e-06 0
-10.003904 2.2680185e-08 0
-10.003904 2.0628855e-11 0
-10.003904 -5.9011555e-13 0
-10.003904 -1.2873337e-12 0
-10.003904 -1.8790952e-10 0
-10.003904 -1.2632667e-06 0
-10.003904 -0.00048353873 0
-10.003904 1.2968797e-06 0
-10.003904 -1.5008974e-10 0
-10.003904 9.2040421e-13 0
-10.003904 -1.0267372e-14 0
-10.003904 1.4197748e-12 0
-10.003904 -8.6616421e-10 0
-10.003903 5.6115208e-06 0
-10.003447 -0.0013949591 0
-8.2106244 -9.3864301 0
1.6745245 3.4022569 0
10.679955 -2.3625278 0
4.8370532 9.9977527 0
-5.8315205 6.4537559 0
-9.9031347 -1.5874864 0
6.3570245 -7.0796391 0
4.606196 12.874977 0
10.010138 -0.060194101 0
10.002884 -1.5312891e-05 0
10.002881 -1.5512079e-08 0
10.002881 1.2064878e-12 0
10.002881 -2.8984685e-14 0
10.002881 -2.1856954e-13 0
10.002881 1.2890547e-10 0
10.002881 1.0347367e-06 0
10.002881 0.00040676068 0
10.002881 -1.0542476e-06 0
10.002881 7.540272e-11 0
10.002881 3.7118915e-13 0
10.002881 -4.8939349e-15 0
10.002881 -1.3387347e-12 0
10.002881 -1.248562e-10 0
10.002884 1.7308194e-05 0
10.010311 0.011547448 0
4.5987164 -12.893736 0
6.2890128 7.1428654 0
-9.902807 1.5861066 0
-5.831538 -6.4537611 0
-10.003762 0.0048675336 0
-3.93338 -8.2591012 0
-10.077263 0.53484863 0
-10.000506 0.20885476 0
-10.013599 -0.0062282143 0
-10.004706 -1.4200089e-05 0
-10.004703 3.5906628e-09 0
-10.004703 6.1830546e-13 0
-10.004703 4.5101751e-15 0
-10.004703 -2.7605483e-13 0
-10.004703 -1.4790857e-11 0
-10.004703 5.1155984e-11 0
-10.004703 -2.495417e-05 0
-10.004703 -6.5413323e-11 0
-10.004703 -1.0156319e-11 0
-10.004703 5.1081608e-13 0
-10.004703 -4.8285403e-15 0
-10.004703 -1.1475982e-12 0
-10.004703 -4.7411383e-10 0
-10.004706 1.4128084e-05 0
-10.013715 0.012083442 0
-10.000379 -0.21461107 0
-10.077242 -0.53606543 0
-3.9333777 8.2590954 0
-10.003762 -0.0048670933 0
-11.491165 -1.0819591 0
0.87603131 -8.1051025 0
-3.1974602 7.3399614 0
10.010735 -0.18809533 0
10.003966 -0.0048129611 0
10.004426 -5.0347624e-06 0
10.00443 -1.5964666e-09 0
10.00443 4.9951524e-13 0
10.00443 5.2222774e-15 0
10.00443 -8.4617249e-14 0
10.00443 1.1333765e-12 0
10.00443 -5.4771818e-11 0
10.00443 2.0366615e-05 0
10.00443 -7.7602103e-11 0
10.00443 1.7036894e-12 0
10.00443 1.6468972e-13 0
10.00443 -4.7066104e-15 0
10.00443 -6.4668795e-13 0
10.00443 -1.665539e-10 0
10.004426 5.1132713e-06 0
10.003966 2.1557576e-06 0
10.010569 0.19307738 0
-3.1776602 -7.3364974 0
0.87867453 8.1066941 0
-11.491169 1.0819634 0
-10.022696 -0.0085159842 0
5.9947264 -5.3902222 0
-2.1258251 12.923658 0
-10.036409 -0.04591632 0
-10.00478 0.00020742895 0
-10.004762 -8.4109873e-07 0
-10.004761 2.1829247e-10 0
-10.004761 -1.1975202e-13 0
-10.004761 5.2097335e-15 0
-10.004761 -1.2986242e-13 0
-10.004761 -9.2426442e-13 0
-10.004761 -3.5662229e-11 0
-10.004761 1.3927181e-09 0
-10.004761 -3.2736069e-11 0
-10.004761 -4.1397555e-13 0
-10.004761 2.5540924e-13 0
-10.004761 -4.5892799e-15 0
-10.004761 -1.3219876e-13 0
-10.004761 -2.1311591e-11 0
-10.004762 8.4559803e-07 0
-10.00478 3.6724728e-05 0
-10.036863 0.045432547 0
-2.1270047 -12.922564 0
5.9965461 5.3917898 0
-10.022696 0.0085160122 0
-10.000072 0.0068799578 0
-9.9867847 0.025686279 0
-0.39762914 -5.5066711 0
10.000391 0.013770633 0
10.005083 -0.00022725258 0
10.005099 1.382397e-09 0
10.005099 -5.3679641e-11 0
10.005099 -2.2489603e-13 0
10.005099 5.0062002e-15 0
10.005099 -1.1773028e-13 0
10.005099 -2.2677298e-13 0
10.005099 -3.6184764e-12 0
10.005099 2.8348259e-11 0
10.005099 -5.5153495e-12 0
10.005099 2.2682831e-13 0
10.005099 2.3129607e-13 0
10.005099 -4.4615445e-15 0
10.005099 -3.5417383e-15 0
10.005099 -2.632717e-12 0
10.005099 -2.5683965e-09 0
10.005083 2.785387e-05 0
10.000395 -0.013242666 0
-0.41848955 5.5013706 0
-9.9867843 -0.025680335 0
-10.000072 -0.0068799657 0
-10.000008 0.0068492708 0
-10.002164 0.0015431805 0
-9.9920452 0.4887519 0
-10.004242 -0.0011615197 0
-10.004248 -4.032206e-06 0
-10.004247 -1.0358961e-10 0
-10.004247 8.09112e-12 0
-10.004247 -1.0900511e-13 0
-10.004247 4.8638154e-15 0
-10.004247 -5.771858e-14 0
-10.004247 -1.0704466e-13 0
-10.004247 -2.4118484e-13 0
-10.004247 9.3984469e-14 0
-10.004247 7.5671334e-14 0
-10.004247 1.0713123e-13 0
-10.004247 1.1139392e-13 0
-10.004247 -4.3321298e-15 0
-10.004247 4.4807626e-17 0
-10.004247 -1.5630277e-12 0
-10.004247 3.5089699e-10 0
-10.004248 4.1334227e-06 0
-10.004242 0.0011331789 0
-9.9920071 -0.48970533 0
-10.002168 -0.0015452412 0
-10.000008 -0.006849279 0
-10.000001 0.0068320063 0
-10.000055 0.00026083364 0
9.9887348 -0.39785044 0
10.001765 0.00096256943 0
10.00179 2.5054428e-06 0
10.001791 4.0369131e-10 0
10.001791 1.487249e-13 0
10.001791 -1.9481647e-13 0
10.001791 4.716892e-15 0
10.001791 -1.0046702e-13 0
10.001791 -1.9286423e-13 0
10.001791 -2.8528659e-13 0
10.001791 -3.896612e-13 0
10.001791 2.8903961e-13 0
10.001791 1.9288948e-13 0
10.001791 1.9701053e-13 0
10.001791 -4.203483e-15 0
10.001791 -1.5674934e-17 0
10.001791 -2.0163135e-13 0
10.001791 -2.9864115e-10 0
10.00179 -2.5998881e-06 0
10.001765 -0.00093940996 0
9.9886946 0.39862748 0
-10.000055 -0.00026081915 0
-10.000001 -0.0068320066 0
-10 0.0068290204 0
-10.000024 4.431471e-05 0
-10.002361 3.9039092e-06 0
-10.0024 1.9606727e-06 0
-10.002402 1.2065818e-08 0
-10.002402 -2.8089108e-11 0
-10.002402 -4.6371963e-14 0
-10.002402 -1.9582576e-15 0
-10.002402 4.5799846e-15 0
-10.002402 -3.9406719e-15 0
-10.002402 -6.2386357e-17 0
-10.002402 3.8234937e-15 0
-10.002402 -3.912638e-15 0
-10.002402 -1.7013587e-16 0
-10.002402 7.5757131e-17 0
-10.002402 4.0731287e-15 0
-10.002402 -4.0817396e-15 0
-10.002402 -3.3888372e-18 0
-10.002402 4.9541687e-14 0
-10.002402 2.8335128e-11 0
-10.002402 -1.2143886e-08 0
-10.0024 -1.9604582e-06 0
-10.002361 -3.8515719e-06 0
-10.000024 -4.4316051e-05 0
-10 -0.0068290204 0
-10 0.0068281416 0
-10.000001 1.3423275e-05 0
-10.000005 4.0959386e-07 0
-10.000006 5.542617e-09 0
-10.000006 -4.0020133e-12 0
-10.000006 6.0556669e-14 0
-10.000006 -1.4840982e-17 0
-10.000006 -1.9430004e-15 0
-10.000006 4.5670674e-15 0
-10.000006 -3.9303647e-15 0
-10.000006 -6.5813988e-17 0
-10.000006 3.8079344e-15 0
-10.000006 -3.9081619e-15 0
-10.000006 -1.6446202e-16 0
-10.000006 7.8079605e-17 0
-10.000006 4.0645815e-15 0
-10.000006 -4.0701933e-15 0
-10.000006 -1.4048998e-17 0
-10.000006 1.6182134e-16 0
-10.000006 -5.6987654e-14 0
-10.000006 3.736783e-12 0
-10.000006 -5.5527428e-09 0
-10.000005 -4.0957414e-07 0
-10.000001 -1.3423282e-05 0
-10 -0.0068281416 0
-10 0.0068281416 0
-10 1.2685699e-05 0
-10 -3.1439472e-07 0
-10 -1.7352966e-10 0
-10 2.7328834e-12 0
-10 1.2751007e-15 0
-10 -1.2207282e-17 0
-10 -1.9420856e-15 0
-10 4.5669786e-15 0
-10 -3.9311931e-15 0
-10 -6.5824493e-17 0
-10 3.8081421e-15 0
-10 -3.9081479e-15 0
-10 -1.6440439e-16 0
-10 7.8063425e-17 0
-10 4.0645209e-15 0
-10 -4.0700899e-15 0
-10 -1.4048341e-17 0
-10 1.5894972e-16 0
-10 1.2194328e-15 0
-10 -2.7332233e-12 0
-10 1.7352779e-10 0
-10 3.1439472e-07 0
-10 -1.2685699e-05 0
-10 -0.0068281416 0
-10 0.0068281416 0
-10 1.2685699e-05 0
-10 -3.1439459e-07 0
-10 -1.7329977e-10 0
-10 2.7340771e-12 0
-10 1.2734166e-15 0
-10 -1.2219895e-17 0
-10 -1.9420987e-15 0
-10 4.5669556e-15 0
-10 -3.931223e-15 0
-10 -6.5865591e-17 0
-10 3.8080735e-15 0
-10 -3.9085e-15 0
-10 -1.6438922e-16 0
-10 7.8090837e-17 0
-10 4.064549e-15 0
-10 -4.0700465e-15 0
-10 -1.4048263e-17 0
-10 1.5890759e-16 0
-10 1.2210134e-15 0
-10 -2.7344188e-12 0
-10 1.7329791e-10 0
-10 3.1439458e-07 0
-10 -1.2685699e-05 0
-10 -0.0068281416 0
-10 0.0068281416 0
-10 1.2685699e-05 0
-10 -3.1439459e-07 0
-10 -1.7329978e-10 0
-10 2.7340768e-12 0
-10 1.2738729e-15 0
-10 -1.2183639e-17 0
-10 -1.9430384e-15 0
-10 4.5668431e-15 0
-10 -3.9313461e-15 0
-10 -6.6525884e-17 0
-10 3.8072904e-15 0
-10 -3.9092661e-15 0
-10 -1.6398409e-16 0
-10 7.888917e-17 0
-10 4.0647172e-15 0
-10 -4.0699636e-15 0
-10 -1.4069392e-17 0
-10 1.5905733e-16 0
-10 1.2201207e-15 0
-10 -2.7344185e-12 0
-10 1.7329791e-10 0
-10 3.1439458e-07 0
-10 -1.2685699e-05 0
-10 -0.0068281416 0
-10 0.0068281416 0
-10 1.2685699e-05 0
-10 -3.1439459e-07 0
-10 -1.7329978e-10 0
-10 2.7340765e-12 0
-10 1.2742012e-15 0
-10 -1.2251851e-17 0
-10 -1.9439595e-15 0
-10 4.5672843e-15 0
-10 -3.9314976e-15 0
-10 -6.6476197e-17 0
-10 3.8074508e-15 0
-10 -3.9101937e-15 0
-10 -1.6296231e-16 0
-10 7.9187554e-17 0
-10 4.0650015e-15 0
-10 -4.0703305e-15 0
-10 -1.4055784e-17 0
-10 1.5934534e-16 0
-10 1.2191371e-15 0
-10 -2.73442e-12 0
-10 1.7329791e-10 0
-10 3.1439458e-07 0
-10 -1.2685699e-05 0
-10 -0.0068281416 0
-10 0.0068281416 0
-10 1.2685698e-05 0
-10 -3.1439457e-07 0
-10 -1.732993e-10 0
-10 2.7340644e-12 0
-10 1.2736188e-15 0
-10 -1.2123278e-17 0
-10 -1.9426114e-15 0
-10 4.5668697e-15 0
-10 -3.9310477e-15 0
-10 -6.5977453e-17 0
-10 3.808032e-15 0
-10 -3.9085525e-15 0
-10 -1.6462808e-16 0
-10 7.8621448e-17 0
-10 4.0646013e-15 0
-10 -4.0706486e-15 0
-10 -1.4057268e-17 0
-10 1.5970632e-16 0
-10 1.2201432e-15 0
-10 -2.7344186e-12 0
-10 1.7329746e-10 0
-10 3.1439457e-07 0
-10 -1.2685698e-05 0
-10 -0.0068281416 0
-9.9999997 0.0068281471 0
-9.9999997 1.2685507e-05 0
-9.9999997 -3.1440459e-07 0
-9.9999997 -1.7328051e-10 0
-9.9999997 2.7341283e-12 0
-9.9999997 1.2735117e-15 0
-9.9999997 -1.203856e-17 0
-9.9999997 -1.942143e-15 0
-9.9999997 4.5667944e-15 0
-9.9999997 -3.930843e-15 0
-9.9999997 -6.5662891e-17 0
-9.9999997 3.8084734e-15 0
-9.9999997 -3.9074692e-15 0
-9.9999997 -1.6553016e-16 0
-9.9999997 7.8323087e-17 0
-9.9999997 4.0641133e-15 0
-9.9999997 -4.0706477e-15 0
-9.9999997 -1.4057077e-17 0
-9.9999997 1.5969994e-16 0
-9.9999997 1.2204718e-15 0
-9.9999997 -2.7344894e-12 0
-9.9999997 1.7327842e-10 0
-9.9999997 3.1440459e-07 0
-9.9999997 -1.2685507e-05 0
-9.9999997 -0.0068281471 0
-10.000015 0.006829059 0
-10.000013 1.2792607e-05 0
-10.000013 -3.147412e-07 0
-10.000013 -1.7430835e-10 0
-10.000013 2.7372929e-12 0
-10.000013 1.2771532e-15 0
-10.000013 -1.2323016e-17 0
-10.000013 -1.9441856e-15 0
-10.000013 4.5674545e-15 0
-10.000013 -3.931845e-15 0
-10.000013 -6.6938322e-17 0
-10.000013 3.807014e-15 0
-10.000013 -3.9115304e-15 0
-10.000013 -1.6277261e-16 0
-10.000013 7.9668481e-17 0
-10.000013 4.066044e-15 0
-10.000013 -4.0713942e-15 0
-10.000013 -1.4057616e-17 0
-10.000013 1.6007338e-16 0
-10.000013 1.2148916e-15 0
-10.000013 -2.7376668e-12 0
-10.000013 1.7430626e-10 0
-10.000013 3.147412e-07 0
-10.000013 -1.2792607e-05 0
-10.000015 -0.006829059 0
-10.006452 0.0064517239 0
-10.006829 1.5374515e-05 0
-10.006828 -3.0641906e-07 0
-10.006828 -2.1671364e-10 0
-10.006828 2.6845229e-12 0
-10.006828 1.4916393e-15 0
-10.006828 -1.2712725e-17 0
-10.006828 -1.89823e-15 0
-10.006828 4.451275e-15 0
-10.006828 -3.8331463e-15 0
-10.006828 -6.8294847e-17 0
-10.006828 3.7063772e-15 0
-10.006828 -3.8190919e-15 0
-10.006828 -1.545717e-16 0
-10.006828 8.1391433e-17 0
-10.006828 3.965768e-15 0
-10.006828 -3.9688008e-15 0
-10.006828 -1.4057831e-17 0
-10.006828 1.5708181e-16 0
-10.006828 9.5415029e-16 0
-10.006828 -2.684492e-12 0
-10.006828 2.1671e-10 0
-10.006828 3.0641906e-07 0
-10.006829 -1.5374515e-05 0
-10.006452 -0.0064517239 0
-3.5342412 7.4854263 0
5.5676108 -8.7759934 0
-7.6969048 1.5612134 0
-10.000692 -0.23779119 0
-11.5387 10.873243 0
-10.025412 -0.043483222 0
-9.9974924 -9.9571212e-05 0
-9.9974618 -4.561312e-05 0
-9.9974614 2.0973036e-09 0
-9.9974614 2.2770322e-09 0
-9.9974614 -4.2371989e-05 0
-9.9974615 -0.000467354 0
-9.9973669 -0.043422384 0
-9.9974613 0.00047545975 0
-9.9974614 -3.3421582e-08 0
-9.9974614 1.2719049e-10 0
-9.9974614 -8.8787946e-11 0
-9.9974618 2.4651768e-06 0
-9.9974906 9.6286754e-05 0
-10.009348 0.027631044 0
-11.51679 -9.5320018 0
-10.001085 0.24298988 0
-7.6827148 -1.7481979 0
5.9524055 8.6232402 0
-3.5336042 -7.4856377 0
2.6309794 -13.726701 0
-8.1280612 -2.5828835 0
5.431615 -9.79044 0
10.128603 1.5406116 0
1.3973822 -1.263878 0
-9.2008245 13.562606 0
9.9975315 -0.0027826418 0
9.9985033 3.4191635e-05 0
9.9985039 -1.7243965e-09 0
9.9985039 -2.1160825e-09 0
9.9985039 4.0273946e-05 0
9.9985039 0.00036801391 0
9.9984471 0.034496045 0
9.998504 -0.00037426473 0
9.9985039 2.5070186e-08 0
9.9985039 -9.4540383e-11 0
9.9985039 -1.7405703e-10 0
9.9985033 6.753412e-06 0
9.9975207 0.0028023993 0
-9.2089023 -13.559075 0
1.3761978 1.2477529 0
10.130277 -1.5246966 0
5.4453301 9.7797561 0
-8.1280544 2.5828823 0
2.6309794 13.726701 0
-9.3144485 0.070695524 0
8.3729599 4.705796 0
-7.1074974 -6.4675451 0
-5.7389804 -1.2321011 0
10.002202 -0.10678794 0
9.4371879 0.52162618 0
-9.9961731 -0.0039357349 0
-9.9976125 -4.3693836e-05 0
-9.9976132 1.7744069e-09 0
-9.9976132 1.8532373e-09 0
-9.9976132 -3.8698734e-05 0
-9.9976132 -0.00034859862 0
-9.9975559 -0.03288763 0
-9.9976131 0.00035419609 0
-9.9976132 -2.1603509e-08 0
-9.9976132 8.2012283e-11 0
-9.9976132 -1.3219767e-10 0
-9.9976125 4.4164032e-06 0
-9.9961577 0.0039738375 0
9.4671565 -0.51378538 0
10.002612 0.2639196 0
-7.1282026 -4.1647865 0
-7.2292542 6.3293089 0
8.3744685 -4.7045295 0
-9.3144444 -0.07069297 0
0.45729717 -3.6901255 0