# vtk DataFile Version 4.0
hesp visualization file
ASCII
DATASET UNSTRUCTURED_GRID
POINTS 32 double
-4.6556027 -0.0017826543 4
-6.3061718 2.2745955 4
-6.3061718 3.3377147 4
-4.6556027 5.6140929 4
-5.1623974 -3.6842103 4
-3.2545657 1.6414493 4
-3.2545657 3.970861 4
-5.1623974 9.2965205 4
2.5936081 -8.05643 4
-0.75070015 -1.7018211 4
-0.75070015 7.3141313 4
2.5936081 13.66874 4
7.0240894 -7.9813244 4
8.6035431 0.90825566 4
8.6035431 4.7040546 4
7.0240894 13.593635 4
14.588221 -7.9813244 4
13.008767 0.90825566 4
13.008767 4.7040546 4
14.588221 13.593635 4
19.018702 -8.05643 4
22.36301 -1.7018211 4
22.36301 7.3141313 4
19.018702 13.66874 4
26.774708 -3.6842103 4
24.866876 1.6414493 4
24.866876 3.970861 4
26.774708 9.2965205 4
26.267913 -0.0017826543 4
27.918482 2.2745955 4
27.918482 3.3377147 4
26.267913 5.6140929 4
CELLS 0 0
CELL_TYPES 0
POINT_DATA 32
SCALARS m double
LOOKUP_TABLE default
1
1
1
1
1
1
1
1
1
1
1
1
1
1
1
1
1
1
1
1
1
1
1
1
1
1
1
1
1
1
1
1
VECTORS v double
-10.510904 -1.1282558 0
-11.908246 -0.39105184 0
-11.908246 0.39105184 0
-10.510904 1.1282558 0
-12.473138 -4.5525146 0
-9.8393348 -0.27680897 0
-9.8393348 0.27680897 0
-12.473138 4.5525146 0
-6.2396085 -8.7278255 0
-8.310655 -3.1836255 0
-8.310655 3.1836255 0
-6.2396085 8.7278255 0
-3.0734343 -7.7754976 0
-1.4031789 -0.91417353 0
-1.4031789 0.91417353 0
-3.0734343 7.7754976 0
3.0734343 -7.7754976 0
1.4031789 -0.91417353 0
1.4031789 0.91417353 0
3.0734343 7.7754976 0
6.2396085 -8.7278255 0
8.310655 -3.1836255 0
8.310655 3.1836255 0
6.2396085 8.7278255 0
12.473138 -4.5525146 0
9.8393348 -0.27680897 0
9.8393348 0.27680897 0
12.473138 4.5525146 0
10.510904 -1.1282558 0
11.908246 -0.39105184 0
11.908246 0.39105184 0
10.510904 1.1282558 0
