# vtk DataFile Version 4.0
hesp visualization file
ASCII
DATASET UNSTRUCTURED_GRID
POINTS 32 double
2.4787146 1.1287146 4
2.4839665 2.2462796 4
2.4839665 3.3660307 4
2.4787146 4.4835956 4
3.5962796 1.1339665 4
3.5969801 2.2469801 4
3.5969801 3.3653301 4
3.5962796 4.4783438 4
4.7160307 1.1339665 4
4.7153302 2.2469801 4
4.7153302 3.3653301 4
4.7160307 4.4783437 4
5.8335957 1.1287146 4
5.8283438 2.2462796 4
5.8283438 3.3660307 4
5.8335957 4.4835956 4
15.778715 1.1287146 4
15.783966 2.2462796 4
15.783966 3.3660307 4
15.778715 4.4835956 4
16.89628 1.1339665 4
16.89698 2.2469801 4
16.89698 3.3653301 4
16.89628 4.4783437 4
18.016031 1.1339665 4
18.01533 2.2469801 4
18.01533 3.3653301 4
18.016031 4.4783438 4
19.133596 1.1287146 4
19.128344 2.2462796 4
19.128344 3.3660307 4
19.133596 4.4835956 4
CELLS 0 0
CELL_TYPES 0
POINT_DATA 32
SCALARS m double
LOOKUP_TABLE default
1
1
1
1
1
1
1
1
1
1
1
1
1
1
1
1
1
1
1
1
1
1
1
1
1
1
1
1
1
1
1
1
VECTORS v double
10.086302 0.086301758 0
10.15834 0.023170693 0
10.15834 -0.023170693 0
10.086302 -0.086301758 0
10.023171 0.1583401 0
10.038988 0.038988132 0
10.038988 -0.038988132 0
10.023171 -0.1583401 0
9.9768299 0.15834013 0
9.9610125 0.038988143 0
9.9610125 -0.038988143 0
9.9768299 -0.15834013 0
9.9136993 0.086301871 0
9.841661 0.023170736 0
9.841661 -0.023170736 0
9.9136993 -0.086301871 0
-9.9136993 0.086301871 0
-9.841661 0.023170736 0
-9.841661 -0.023170736 0
-9.9136993 -0.086301871 0
-9.9768299 0.15834013 0
-9.9610125 0.038988143 0
-9.9610125 -0.038988143 0
-9.9768299 -0.15834013 0
-10.023171 0.1583401 0
-10.038988 0.038988132 0
-10.038988 -0.038988132 0
-10.023171 -0.1583401 0
-10.086302 0.086301758 0
-10.15834 0.023170693 0
-10.15834 -0.023170693 0
-10.086302 -0.086301758 0
