# vtk DataFile Version 4.0
hesp visualization file
ASCII
DATASET UNSTRUCTURED_GRID
POINTS 1250 double
38.164381 5.2947537 4
33.054988 -4.0558245 4
34.266532 6.7669996 4
28.358771 -0.004938321 4
30.716533 4.4451491 4
31.393832 8.5392916 4
28.70145 6.8883947 4
33.841165 5.8782822 4
29.155932 10.126389 4
33.150696 14.113625 4
25.827679 13.197289 4
33.068123 15.702411 4
33.17109 14.438279 4
35.006146 19.130238 4
30.08294 15.988668 4
32.050006 18.305154 4
26.336677 18.250154 4
31.26891 16.851676 4
31.732484 21.440271 4
29.969388 19.829802 4
31.858855 22.119352 4
35.318817 30.23513 4
35.021857 26.373975 4
34.181258 30.094218 4
29.419696 30.574634 4
31.495514 -14.958394 4
29.277156 2.0736192 4
33.827262 -5.6841584 4
36.038299 5.6121972 4
37.742086 4.8380698 4
29.126179 8.5714292 4
30.985429 2.6965563 4
29.736892 11.123619 4
31.373115 9.7459223 4
29.70551 15.43741 4
33.225584 12.837076 4
28.005532 12.325964 4
29.600342 17.391443 4
28.488127 17.786057 4
28.84925 12.376126 4
33.827187 16.904372 4
33.249661 16.815634 4
32.331743 19.966898 4
29.062014 18.577086 4
28.883895 21.458648 4
29.783551 23.38947 4
34.72912 23.407211 4
33.842192 34.862644 4
31.84634 31.38731 4
31.495514 44.142407 4
31.807964 -5.175685 4
33.54528 3.6171836 4
30.603648 8.6490636 4
33.584254 5.9628077 4
36.481552 5.7638041 4
29.132084 12.859708 4
30.371903 14.542834 4
33.08567 10.622758 4
31.042206 7.0151271 4
30.085296 11.383794 4
31.644351 11.572715 4
32.305927 13.097734 4
31.657971 15.233615 4
31.147833 16.548748 4
33.527748 17.933132 4
31.153771 17.893346 4
29.357489 19.918684 4
30.537372 20.3443 4
33.32094 19.566185 4
30.937115 20.276018 4
37.011299 22.750281 4
35.135833 27.155839 4
31.873961 27.786213 4
30.07723 24.659635 4
31.818894 34.342204 4
31.455571 -3.8567395 4
34.47812 -9.3567461 4
32.14963 5.4509891 4
34.183393 3.9666402 4
27.830502 2.839125 4
29.247654 10.823656 4
33.045112 6.0425541 4
30.907256 12.540363 4
30.083208 12.803046 4
33.473639 8.1880971 4
31.656047 11.264364 4
28.198857 12.084465 4
27.474442 12.265723 4
31.418866 14.985168 4
30.488975 14.965981 4
30.708155 19.554843 4
36.574933 16.720914 4
30.755925 20.544894 4
32.640392 25.15197 4
28.880771 25.514439 4
34.045559 26.512281 4
35.741936 23.584985 4
29.741091 27.41819 4
34.478126 38.540762 4
31.450917 33.044612 4
31.690817 9.5472038 4
32.75776 2.615131 4
35.12769 -2.0838242 4
36.738229 0.19649116 4
33.165051 9.8645302 4
29.510514 0.86333035 4
31.124551 9.0850087 4
34.821173 14.147702 4
34.199978 13.004006 4
32.272353 15.369771 4
32.971856 16.108816 4
36.842182 17.628986 4
33.641585 15.254092 4
29.780106 16.684037 4
28.517642 16.360989 4
33.797714 17.230214 4
31.64451 18.004679 4
30.535594 21.359363 4
31.80401 24.551455 4
29.67947 18.279246 4
27.320065 15.082214 4
30.914657 19.252538 4
35.141349 29.893429 4
34.148926 25.483966 4
35.974068 22.254731 4
30.165418 -5.0915953 4
31.374151 -8.4013108 4
32.541163 0.80622087 4
28.603017 12.080157 4
31.635206 8.832781 4
30.884422 2.3444352 4
36.029601 6.7945073 4
35.930895 7.6577666 4
31.483124 5.5691343 4
35.417942 7.8856765 4
31.385551 12.392611 4
34.414253 12.671977 4
34.595471 8.8860099 4
34.120189 16.431831 4
36.111406 18.930779 4
32.967756 17.832846 4
31.684578 19.028171 4
31.081705 19.555938 4
30.57052 21.795798 4
28.89524 26.385966 4
34.489148 24.393365 4
30.855789 25.992026 4
33.866546 21.627236 4
31.374682 37.585473 4
30.165444 34.275662 4
32.160162 0.65381718 4
35.754479 0.093013414 4
28.039967 -1.9693264 4
34.076693 4.5949409 4
27.329744 1.1262701 4
34.363831 8.7041881 4
37.871132 9.0137621 4
31.562491 7.2282128 4
32.826909 10.346691 4
34.339862 11.035652 4
31.76537 14.120268 4
34.828974 17.593001 4
35.908951 17.078395 4
34.138646 12.068706 4
33.66209 16.634932 4
35.6649 17.562047 4
30.905444 21.688825 4
33.704523 19.617718 4
32.832894 23.439001 4
30.199883 22.370567 4
30.044324 24.390938 4
35.912191 21.776864 4
27.038763 30.644223 4
37.216533 24.229259 4
33.42128 30.436751 4
40.550738 -10.113492 4
32.137395 2.4754232 4
34.112973 1.9296078 4
30.637163 6.2918186 4
36.121804 6.543143 4
31.199468 5.0806562 4
33.712981 9.7488088 4
35.99195 13.447894 4
34.560664 11.696347 4
36.91959 8.8467058 4
33.947961 11.292638 4
32.615274 14.589737 4
33.09885 14.887156 4
34.979383 16.672058 4
35.611508 12.880477 4
35.456756 16.14492 4
33.011159 20.853005 4
40.209825 21.767292 4
32.23984 19.700636 4
29.896382 19.356207 4
35.41323 28.674073 4
32.75982 26.193677 4
33.573976 27.163599 4
31.149004 25.940799 4
40.550738 39.297506 4
29.23907 1.4820187 4
29.077287 1.0891021 4
34.627714 -2.8194337 4
31.957249 9.9403236 4
37.867356 6.2638296 4
35.725263 3.5148474 4
32.752706 7.7135804 4
34.135053 14.242228 4
33.509411 14.058001 4
34.472531 12.907553 4
35.82639 15.576573 4
32.753217 15.148892 4
33.653822 19.147077 4
33.574161 16.016676 4
35.796764 21.133738 4
34.572316 14.218575 4
32.2124 18.993152 4
36.543398 20.530041 4
34.518642 17.097882 4
35.268076 21.414161 4
34.34223 22.270907 4
40.700725 21.943439 4
36.539864 33.565303 4
30.174142 26.292094 4
31.430724 27.356907 4
33.526138 -0.44272845 4
32.391664 -6.3519918 4
32.450578 -0.72371982 4
36.822267 4.3084222 4
34.536826 7.1697632 4
34.867716 9.3902313 4
36.727467 10.603719 4
33.238229 11.262296 4
39.166558 9.9516892 4
37.968267 9.6205485 4
36.191031 11.587315 4
36.047944 12.716679 4
32.828884 13.661103 4
37.320313 14.389499 4
36.479269 15.252204 4
37.82551 17.911094 4
36.118487 16.792663 4
31.596645 17.587863 4
36.675638 20.911152 4
37.742736 22.382285 4
34.220884 21.363434 4
36.391555 22.741084 4
34.602004 29.69803 4
32.391665 35.53602 4
32.341643 28.612194 4
35.085675 -1.1581991 4
35.846921 3.1174428 4
39.416706 5.2910203 4
31.679083 -1.3057161 4
40.569855 3.4436921 4
38.786886 6.2882794 4
36.429769 6.4698513 4
32.503781 10.083456 4
36.782833 4.9717022 4
35.487383 11.802579 4
33.121428 10.232077 4
37.000239 14.587672 4
36.888111 13.731472 4
35.573565 17.851818 4
35.366656 16.923351 4
35.679394 21.457303 4
37.902789 21.653788 4
32.578558 19.967514 4
33.98191 21.006301 4
37.698031 20.540334 4
37.281348 26.548834 4
31.914574 30.094665 4
33.542914 23.522404 4
36.131278 26.512739 4
28.719724 31.322506 4
30.743335 -3.1887437 4
31.489186 -2.0883635 4
38.359965 10.50471 4
35.127735 1.48824 4
33.941665 2.6746778 4
34.507856 3.7714612 4
34.160362 7.5229379 4
32.291634 9.1600628 4
34.135276 10.589358 4
35.757411 10.284567 4
40.453316 14.06023 4
36.633041 11.716388 4
33.989893 15.099763 4
38.621351 14.679638 4
37.949838 18.26013 4
33.957664 19.06968 4
35.17956 18.451139 4
36.811896 19.910701 4
34.424817 20.7567 4
43.889434 24.534079 4
33.321431 19.852506 4
35.765344 26.091284 4
37.774747 16.906515 4
33.056315 32.264594 4
31.23438 32.732271 4
29.48382 -2.0691106 4
31.397567 -3.1702638 4
40.721488 2.4515191 4
38.828802 6.5632542 4
36.947665 4.767516 4
39.08684 6.0187537 4
38.72394 11.065107 4
35.829762 8.5099114 4
38.271451 11.292647 4
38.844126 14.284134 4
37.104823 14.203146 4
35.134364 12.157 4
34.684751 15.914279 4
33.399343 15.116736 4
41.542751 16.108042 4
36.039687 19.753011 4
35.187347 20.561224 4
35.876515 18.267978 4
35.40043 19.49607 4
41.772153 23.880559 4
36.2584 23.774381 4
38.385343 25.369415 4
40.302031 26.621177 4
32.352299 34.392766 4
30.852712 29.819785 4
31.14092 -3.9893619 4
33.381499 1.8820328 4
34.1874 -1.9279182 4
34.153872 5.7276834 4
37.015472 2.0835953 4
35.664386 10.95002 4
36.186231 10.594551 4
37.631568 5.8172527 4
37.31859 10.511801 4
36.362754 10.83926 4
38.972218 12.103987 4
37.639808 12.361888 4
40.293873 15.762028 4
38.218547 16.711614 4
37.049842 15.528522 4
38.108426 19.789187 4
37.827926 18.626186 4
36.913824 18.313883 4
34.599898 17.898821 4
38.396226 20.910057 4
38.663222 25.528559 4
34.698007 28.796294 4
35.003057 31.233701 4
35.329086 31.022216 4
32.006544 31.951337 4
35.432809 -4.3449281 4
31.836179 -0.15214138 4
36.831016 2.3877605 4
38.721414 4.2912379 4
35.730163 1.5966752 4
35.08512 6.9577215 4
35.422917 6.6647193 4
39.570863 8.2039198 4
39.887362 10.333277 4
37.976293 13.994387 4
37.137492 12.549131 4
39.623386 16.114302 4
41.136938 11.556366 4
39.897259 11.628397 4
36.453733 16.965108 4
38.268924 15.303014 4
37.850998 14.914225 4
39.668783 17.557309 4
34.895566 20.873082 4
39.188683 21.452911 4
37.241453 22.762933 4
35.068322 24.238363 4
32.97392 27.130615 4
32.282356 29.888529 4
35.247242 31.832225 4
36.840151 -2.9193167 4
36.886967 3.0051772 4
37.66929 7.7577205 4
36.286587 0.62054895 4
38.870305 9.4181151 4
37.381626 5.2208716 4
38.55276 8.4495976 4
39.648168 9.5961863 4
40.353819 8.5502966 4
41.631863 9.5693391 4
40.949375 12.083459 4
37.776947 11.157309 4
36.307835 14.488486 4
37.452865 16.757876 4
40.000376 14.683114 4
41.64962 16.483617 4
39.039558 19.284152 4
39.190606 20.132005 4
38.512163 21.753616 4
38.822732 19.953786 4
37.624464 24.268222 4
36.133407 26.047126 4
40.176461 25.707791 4
36.05683 23.99821 4
36.62625 32.392155 4
36.386223 -2.3651099 4
37.834728 5.1502868 4
38.244008 1.2747485 4
41.892065 6.3502867 4
37.025307 3.8735731 4
37.949692 7.0309668 4
39.309411 8.0760191 4
38.154575 9.7838299 4
37.902507 10.011009 4
38.790882 11.342626 4
39.225515 12.885593 4
38.400214 14.211347 4
36.252921 13.386992 4
39.99685 18.551967 4
40.861374 17.683736 4
38.745591 17.890357 4
38.108531 18.936561 4
41.006585 18.88366 4
41.174033 20.710208 4
36.166521 22.468563 4
38.745681 22.495881 4
44.170672 23.765582 4
41.195681 30.243978 4
37.088012 26.170913 4
34.114263 32.154052 4
35.70892 -0.54731989 4
33.268284 1.1384679 4
36.711385 2.0595251 4
35.227836 6.2606443 4
36.592111 9.6209149 4
38.660553 7.8666723 4
41.232299 5.49007 4
42.159794 5.5886269 4
39.40255 10.33829 4
41.470135 11.951738 4
41.269032 10.286575 4
39.254835 13.391138 4
42.980344 12.275912 4
38.233276 17.074677 4
39.085303 16.37725 4
39.938372 18.259681 4
41.826587 18.664308 4
40.271656 20.116962 4
39.809443 19.964117 4
37.341599 23.42608 4
38.126463 22.566084 4
36.453506 25.753201 4
36.736241 27.748179 4
36.85102 28.973515 4
35.061641 28.593993 4
34.660912 -0.38112141 4
37.62571 -3.9824482 4
[...]
POINT_DATA 1250
SCALARS m double
LOOKUP_TABLE default
1
1
1
1
1
1
1
1
1
1
1
1
1
1
1
1
1
1
1
1
1
1
1
1
1
1
1
1
1
1
1
1
1
1
1
1
1
1
1
1
1
1
1
1
1
1
1
1
1
1
1
1
1
1
1
1
1
1
1
1
1
1
1
1
1
1
1
1
1
1
1
1
1
1
1
1
1
1
1
1
1
1
1
1
1
1
1
1
1
1
1
1
1
1
1
1
1
1
1
1
1
1
1
1
1
1
1
1
1
1
1
1
1
1
1
1
1
1
1
1
1
1
1
1
1
1
1
1
1
1
1
1
1
1
1
1
1
1
1
1
1
1
1
1
1
1
1
1
1
1
1
1
1
1
1
1
1
1
1
1
1
1
1
1
1
1
1
1
1
1
1
1
1
1
1
1
1
1
1
1
1
1
1
1
1
1
1
1
1
1
1
1
1
1
1
1
1
1
1
1
1
1
1
1
1
1
1
1
1
1
1
1
1
1
1
1
1
1
1
1
1
1
1
1
1
1
1
1
1
1
1
1
1
1
1
1
1
1
1
1
1
1
1
1
1
1
1
1
1
1
1
1
1
1
1
1
1
1
1
1
1
1
1
1
1
1
1
1
1
1
1
1
1
1
1
1
1
1
1
1
1
1
1
1
1
1
1
1
1
1
1
1
1
1
1
1
1
1
1
1
1
1
1
1
1
1
1
1
1
1
1
1
1
1
1
1
1
1
1
1
1
1
1
1
1
1
1
1
1
1
1
1
1
1
1
1
1
1
1
1
1
1
1
1
1
1
1
1
1
1
1
1
1
1
1
1
1
1
1
1
1
1
1
1
1
1
1
1
1
1
1
1
1
1
1
1
1
1
1
1
1
1
1
1
1
1
1
1
1
1
1
1
1
1
1
1
1
1
1
1
1
1
1
1
1
1
1
1
1
1
1
1
1
1
1
1
1
1
1
1
1
1
1
1
1
1
1
1
1
1
1
1
1
1
1
1
1
1
1
1
1
1
1
1
1
1
1
1
1
1
1
1
1
1
1
1
1
1
1
1
1
1
1
1
1
1
1
1
1
1
1
1
1
1
1
1
1
1
1
1
1
1
1
1
1
1
1
1
1
1
1
1
1
1
1
1
1
1
1
1
1
1
1
1
1
1
1
1
1
1
1
1
1
1
1
1
1
1
1
1
1
1
1
1
1
1
1
1
1
1
1
1
1
1
1
1
1
1
1
1
1
1
1
1
1
1
1
1
1
1
1
1
1
1
1
1
1
1
1
1
1
1
1
1
1
1
1
1
1
1
1
1
1
1
1
1
1
1
1
1
1
1
1
1
1
1
1
1
1
1
1
1
1
1
1
1
1
1
1
1
1
1
1
1
1
1
1
1
1
1
1
1
1
1
1
1
1
1
1
1
1
1
1
1
1
1
1
1
1
1
1
1
1
1
1
1
1
1
1
1
1
1
1
1
1
1
1
1
1
1
1
1
1
1
1
1
1
1
1
1
1
1
1
1
1
1
1
1
1
1
1
1
1
1
1
1
1
1
1
1
1
1
1
1
1
1
1
1
1
1
1
1
1
1
1
1
1
1
1
1
1
1
1
1
1
1
1
1
1
1
1
1
1
1
1
1
1
1
1
1
1
1
1
1
1
1
1
1
1
1
1
1
1
1
1
1
1
1
1
1
1
1
1
1
1
1
1
1
1
1
1
1
1
1
1
1
1
1
1
1
1
1
1
1
1
1
1
1
1
1
1
1
1
1
1
1
1
1
1
1
1
1
1
1
1
1
1
1
1
1
1
1
1
1
1
1
1
1
1
1
1
1
1
1
1
1
1
1
1
1
1
1
1
1
1
1
1
1
1
1
1
1
1
1
1
1
1
1
1
1
1
1
1
1
1
1
1
1
1
1
1
1
1
1
1
1
1
1
1
1
1
1
1
1
1
1
1
1
1
1
1
1
1
1
1
1
1
1
1
1
1
1
1
1
1
1
1
1
1
1
1
1
1
1
1
1
1
1
1
1
1
1
1
1
1
1
1
1
1
1
1
1
1
1
1
1
1
1
1
1
1
1
1
1
1
1
1
1
1
1
1
1
1
1
1
1
1
1
1
1
1
1
1
1
1
1
1
1
1
1
1
1
1
1
1
1
1
1
1
1
1
1
1
1
1
1
1
1
1
1
1
1
1
1
1
1
1
1
1
1
1
1
1
1
1
1
1
1
1
1
1
1
1
1
1
1
1
1
1
1
1
1
1
1
1
1
1
1
1
1
1
1
1
1
1
1
1
1
1
1
1
1
1
1
1
1
1
1
1
1
1
1
1
1
1
1
1
1
1
1
1
1
1
1
1
1
1
1
1
1
1
1
1
1
1
1
1
1
1
1
1
1
1
1
1
1
1
1
1
1
1
1
1
1
1
1
1
1
1
1
1
1
1
1
1
1
1
1
1
1
1
1
1
1
1
1
1
1
1
1
1
1
1
1
1
1
1
1
1
1
1
1
1
1
1
1
1
1
1
1
1
1
1
1
1
1
1
1
1
1
1
1
1
1
1
1
1
1
1
1
1
1
1
1
1
1
1
1
1
1
1
1
1
1
1
1
1
1
1
1
1
1
1
1
1
1
1
1
1
1
1
1
1
1
1
1
1
1
1
1
1
1
1
1
1
1
1
1
1
1
1
1
1
1
1
1
1
1
1
1
1
1
1
1
1
1
1
1
1
1
1
1
1
1
1
1
1
1
1
1
1
1
1
1
1
1
1
1
1
1
1
1
1
1
1
1
1
1
1
1
1
1
1
1
1
1
1
1
1
1
1
1
1
1
1
1
1
1
1
1
VECTORS v double
16.412454 -5.1367528 0
4.5427647 -10.037514 0
-4.5422368 2.8992876 0
8.9366031 -3.3511476 0
3.657588 -0.65342044 0
4.8236755 -5.5604042 0
-5.2796001 1.4270801 0
-1.3853279 -1.7849316 0
-0.54689966 -2.8969671 0
-1.2149132 -10.276852 0
-8.9271241 10.509564 0
-0.85446019 4.9153299 0
-4.0979435 12.489474 0
6.3761968 15.074412 0
15.39561 4.5108616 0
-12.186931 -1.2807245 0
-1.1731225 -5.5907407 0
-10.185736 -3.1403561 0
1.1098842 -2.1637336 0
-0.55587575 -2.3036708 0
19.24413 0.13497081 0
-3.8201918 11.005698 0
-4.6186609 9.5942104 0
-0.073672382 0.8687887 0
-3.7257872 10.017367 0
2.6309649 -13.726701 0
-9.165739 -0.23542987 0
5.3671489 -9.5902515 0
4.1234623 0.32484509 0
6.4008089 6.8212856 0
6.529632 2.9388315 0
8.8966997 -7.3646056 0
-15.072867 -3.0086589 0
-7.4309619 12.66487 0
2.3807058 6.1769477 0
-2.306113 -2.1828771 0
0.50080707 -1.4189555 0
-1.064467 -2.8991333 0
-1.8983364 5.0025474 0
-9.2302531 -0.54745093 0
3.3721387 -0.51096121 0
0.46004436 1.9475294 0
2.4061474 3.4338174 0
-7.0430496 -7.3282165 0
-11.096132 4.7564564 0
-8.5348355 4.5118488 0
8.3305936 -1.6924238 0
5.3884624 9.5854563 0
-4.3528406 10.934837 0
2.630965 13.726701 0
-0.30238222 -9.4878582 0
-4.5738473 -3.5988657 0
3.7678831 5.7671295 0
-10.376024 3.9353249 0
-1.3419074 -5.4496179 0
-6.1536847 14.6529 0
2.8529344 8.6762165 0
0.34405452 3.0242459 0
2.0293721 0.50325413 0
0.18030196 -5.5892942 0
13.520438 -13.196432 0
5.6109356 -1.3836227 0
-2.1571458 8.238965 0
-2.6728805 5.0167333 0
12.552154 -3.7160462 0
-6.1725049 -0.68264037 0
-13.959471 5.1922325 0
10.037127 -1.5820724 0
4.8616651 2.2440182 0
-3.8977174 11.519264 0
2.2641777 -6.6177821 0
-2.3134799 7.7575023 0
-9.4493096 2.7771795 0
-7.1176114 10.849036 0
-0.24028298 9.452359 0
-0.11940572 -3.5255633 0
6.8350487 -10.617898 0
5.6221949 -1.7690899 0
12.686537 -5.9088181 0
-0.071117248 -0.21772053 0
4.821074 -4.0360726 0
-3.2346907 -3.3867316 0
-0.59590092 -3.320182 0
-0.20364864 -18.501458 0
-3.5781728 -9.6614701 0
-7.9027604 -4.6309446 0
13.866402 4.0997282 0
-6.216102 -7.8939144 0
5.9489272 -8.2677082 0
4.4834225 12.064594 0
-0.3311932 -9.1104962 0
11.798498 -4.2669334 0
-3.6856481 0.17273599 0
0.74135828 9.9975383 0
-5.5981383 1.0441967 0
1.9497506 8.2526824 0
-9.1578453 -5.9423223 0
-4.2959245 6.8607622 0
6.8350551 10.617903 0
-0.046316375 3.5295653 0
3.3570039 1.9961545 0
-9.6557677 -7.6932078 0
-4.1808232 -6.853764 0
-6.0662451 -10.913753 0
4.1634643 -1.7745759 0
4.1014305 -2.0809552 0
8.6531751 -0.16151301 0
-9.1423934 1.5075209 0
1.2428964 7.5965246 0
-6.038433 -7.3280173 0
-5.7229833 -3.173358 0
8.6789858 -4.1166793 0
-0.31497634 -2.3105128 0
6.892614 -1.8380735 0
-0.6015433 -12.408806 0
-3.0523457 -10.271444 0
8.5650325 -4.8384482 0
-1.9230657 4.715674 0
2.0289522 3.4261744 0
-1.6362632 7.852915 0
-9.2235808 -14.298449 0
7.188992 -0.43391663 0
9.6114479 -1.1331307 0
-2.8309304 9.2015911 0
-5.8025648 0.37669822 0
-1.4929612 -6.325084 0
-1.9959874 -10.92761 0
5.466252 1.6091359 0
-7.4473407 -6.4059449 0
11.986801 -0.2301503 0
-2.3441705 -12.543703 0
-1.5264713 3.4723853 0
4.0881397 -7.3969401 0
-7.1619502 -3.4063633 0
3.0239723 -1.7478365 0
2.4141532 4.3883849 0
10.37433 5.6092024 0
3.2851982 -12.435914 0
-7.3065493 3.1508703 0
2.0045097 3.6993838 0
11.652288 11.719462 0
-5.6323404 1.7987019 0
-6.5923049 11.934037 0
-2.84758 4.200031 0
-15.696191 6.4836894 0
2.824385 5.5407722 0
-5.1179761 5.177131 0
-2.1647797 1.0344085 0
-1.9953989 10.927779 0
-1.4893023 6.3268808 0
-9.117486 -3.4035354 0
-5.6846261 -8.3269744 0
-0.45175016 -8.8548923 0
1.1973773 -13.104192 0
-7.2542364 -8.1209627 0
10.284614 3.6029199 0
10.51264 5.7837651 0
-2.7697642 -9.0534113 0
1.8271499 -5.8701364 0
0.35036543 1.444607 0
-6.8458362 2.7717936 0
6.758607 -5.8900644 0
-13.856297 -1.8155678 0
-7.1754184 0.11605705 0
9.8746886 1.5745802 0
-1.3927637 1.0144337 0
-4.6974649 5.4597398 0
-13.978286 -6.5383899 0
-1.7471644 9.2391415 0
4.7037297 15.312378 0
-0.97630294 -4.2610133 0
6.7897505 -3.2207848 0
-6.9606388 7.2263603 0
-3.851749 -2.5947479 0
6.4204493 1.2841238 0
4.8370531 -9.9977527 0
-2.5768502 0.23703069 0
2.3968931 -18.608429 0
-15.422667 -0.89318925 0
3.1252559 -9.3280282 0
0.62688984 -2.2092524 0
13.290887 -5.4890941 0
-5.3015868 8.8887143 0
0.45123923 8.0151187 0
7.9970929 -6.8531691 0
-2.2843406 -0.40935782 0
-4.7909501 -8.895755 0
-11.437439 -3.0177257 0
-1.914175 -1.2638303 0
-5.4417109 -1.5487078 0
7.1444323 2.0394497 0
-13.508663 4.9297845 0
-0.82949449 13.478259 0
-7.7798947 7.6190358 0
-7.0198412 -4.8805827 0
3.1744799 4.5976966 0
-0.83444239 7.8985208 0
-8.4800611 -2.4594908 0
1.2238307 -2.0353039 0
4.8370532 9.9977527 0
-8.8581824 0.27194504 0
-3.721415 1.6051482 0
-5.5715487 -7.3618952 0
-5.1818946 11.303127 0
1.5413379 3.8216213 0
2.0613264 -5.2390033 0
0.60334294 8.8965387 0
2.4007264 2.1470368 0
-0.88220182 7.8391079 0
2.627493 3.9765375 0
6.0477736 -9.0701585 0
-7.2532715 -1.0354388 0
-10.893995 -3.6030737 0
0.18040429 5.6210238 0
-3.2124809 11.946746 0
-3.8709423 -9.4499649 0
-12.525643 4.9527295 0
-6.2853283 -4.2373781 0
-3.0799616 -2.799976 0
-1.827501 -5.6993936 0
-6.909473 8.7664562 0
8.0859054 -4.5832633 0
-1.1922051 12.288886 0
6.5043907 1.9713545 0
4.5321787 2.1844355 0
3.2720658 -3.2680595 0
-3.9328094 -8.2532152 0
-8.2326217 -10.293212 0
-3.5160957 10.621187 0
-2.9496296 -1.3787684 0
-4.4830675 5.6261235 0
-9.4880402 4.2778249 0
-1.18798 6.1126132 0
4.0293088 -6.1805543 0
5.2378608 -8.1116212 0
-4.7329382 -4.2676706 0
-8.8756925 3.4432177 0
2.7239694 -5.1976493 0
17.271241 8.3763216 0
-6.4235432 0.92589788 0
2.8562611 9.9810059 0
25.214384 -6.4956264 0
-1.2282069 -14.017955 0
2.788332 14.544178 0
6.0679985 7.1996797 0
-4.1248509 -6.0715468 0
7.4589073 -3.3030075 0
-3.8925831 17.22406 0
-3.9328396 8.25328 0
-2.7365614 -2.1115662 0
11.530032 -2.175231 0
0.41279435 -0.53184734 0
6.6091069 -0.0036841377 0
-2.2636507 -13.277317 0
-1.3729772 -5.6794078 0
7.5235444 -1.917284 0
2.5934923 1.3521559 0
-18.606465 -3.5735341 0
-7.3427583 -9.1357874 0
6.5101061 -5.1962828 0
-15.189978 -4.458737 0
10.658107 -1.6866553 0
-13.323054 5.1574637 0
-9.0804688 2.7672387 0
-6.2602185 12.794557 0
-2.3585948 8.2323034 0
-2.2826339 0.66156849 0
-5.8734103 1.4710471 0
-5.1479815 1.6913136 0
9.1479221 -2.8224879 0
7.425685 -1.1135081 0
-4.758954 5.8986683 0
-1.2061558 -5.3992848 0
-5.8935529 -0.88382846 0
-11.494984 4.814013 0
-8.9194922 -6.6773969 0
-7.4804752 -4.545129 0
15.052278 1.6665872 0
-3.4834383 -8.1288503 0
-1.5066826 6.7442235 0
-8.0590063 -9.7999715 0
-7.9131901 0.42621149 0
-9.812109 0.86869837 0
-18.485575 2.9912362 0
-6.4974521 4.3702348 0
16.285254 4.1447434 0
2.4144896 8.7979598 0
14.808591 14.399436 0
-5.6942972 -4.4185887 0
-0.15570417 2.1655488 0
-9.2475034 6.7875051 0
6.9076301 5.6202394 0
-2.8109547 2.0311666 0
2.7831842 4.5056183 0
10.039329 6.1699304 0
-9.4339255 13.656455 0
0.13763262 -0.93031582 0
-2.1189544 -7.1844457 0
0.13286694 9.3405361 0
8.0414306 7.2313436 0
-3.9380368 -7.961928 0
8.0529793 -7.0122648 0
3.9834388 -1.3911068 0
1.0490685 -1.1342909 0
-1.8223002 -10.922109 0
-0.0028015206 -8.4942872 0
-1.0083446 0.61659987 0
5.0187591 -16.041511 0
4.1110245 5.1606352 0
12.150462 10.976643 0
0.27197446 9.4654463 0
-3.5030437 7.5651438 0
-8.5227554 -3.2412675 0
-3.9751429 6.6416882 0
-7.4779228 6.3044392 0
-4.7045751 3.2987631 0
12.318021 16.942698 0
-14.113263 -1.6145462 0
-8.6490728 -1.4388034 0
9.7450815 2.8844424 0
-10.060431 0.19003122 0
1.4356131 3.7286582 0
1.9453274 1.7154601 0
-2.4099426 17.722524 0
6.6739598 16.597939 0
2.0380933 -14.127875 0
-8.9068737 -0.6173955 0
-4.1235523 -9.031613 0
4.5160471 -4.0275796 0
-6.6047772 -7.4781908 0
-8.3518153 10.876445 0
-0.41635145 3.9485289 0
6.9068444 -4.2549385 0
-4.3964456 -4.1011073 0
-12.227449 -0.13114383 0
-11.675302 0.80811327 0
-1.96818 -1.3245221 0
-0.16789085 7.1011269 0
5.5143696 -8.3637755 0
-11.243987 -2.695525 0
2.1795948 15.14414 0
-2.3368684 3.4362933 0
5.7620851 -2.46878 0
3.7870073 2.3525476 0
4.315309 -10.43534 0
2.6340938 4.0495194 0
-3.1145321 10.000459 0
4.0446069 12.353872 0
-8.5138425 17.167336 0
-4.0373208 10.705214 0
-3.1177782 -11.672389 0
-8.8037413 -3.6413316 0
6.6657213 -5.0590405 0
-6.6872252 -9.2103052 0
-14.918283 -5.4341251 0
-10.408876 -13.11089 0
-5.9484056 7.3350115 0
-0.79966772 -4.4290844 0
-8.6346184 7.6667575 0
-4.8430975 12.093769 0
4.8847966 -2.7315229 0
7.9993795 0.56155259 0
-1.930378 -13.913928 0
3.1528891 -10.543922 0
9.3494381 -6.5885904 0
-0.080925888 -14.459972 0
-7.0788146 -16.446913 0
0.96103675 -17.035694 0
-9.7860713 -2.1484658 0
4.3542212 1.5431323 0
-1.4807529 3.838987 0
-2.8372746 1.0878918 0
-9.619913 0.7291035 0
-5.0078424 8.1645177 0
-3.9993125 6.4248096 0
-1.6614096 -7.013919 0
-0.17707334 -5.9850007 0
-3.8174625 4.6018689 0
-6.1493858 -4.1715324 0
2.1257777 11.002661 0
2.7126726 -1.409348 0
-6.9791971 2.3113491 0
-1.1148799 -7.4955791 0
-11.817433 -0.13101901 0
5.7668504 -2.5370459 0
6.0905138 -0.9705655 0
3.469513 6.2134042 0
-13.692625 3.8262189 0
-1.9887544 4.11485 0
10.047566 -4.8807759 0
9.7450917 -7.1557448 0
-6.954999 -2.1450459 0
-8.945669 2.6465393 0
10.039267 -2.3062994 0
8.6606441 -9.6310174 0
2.0117137 -0.17682859 0
-7.2323418 4.7091106 0
2.3733841 4.2887239 0
-2.2729054 -2.2591499 0
-2.2965819 7.606184 0
10.272863 -10.942216 0
2.5524391 1.4924631 0
-11.340099 -3.0854954 0
-7.535885 -3.7217886 0
-2.8192191 -2.5774162 0
-4.6321144 -4.2040361 0
-0.85540016 -1.3396726 0
-5.9614264 4.2143872 0
-9.6269886 -0.7533519 0
-9.7998633 1.2731639 0
-1.4727746 -2.5252947 0
-4.5130306 3.2529834 0
-4.8981908 -12.27331 0
-3.6358819 -1.3252283 0
-9.6038649 -9.184866 0
-10.217442 -0.31753004 0
-3.131175 -5.4897802 0
-2.1864884 -8.3341447 0
5.9749536 4.8220213 0
-18.356141 9.319219 0
-5.8444733 7.2490198 0
4.7783168 -2.449464 0
-1.9345468 9.3928077 0
-3.3099223 1.1750443 0
-8.5882541 13.469268 0
-6.3559345 -4.6406066 0
-12.070077 0.49907922 0
-8.4424537 -4.4219258 0
-12.956538 -2.1850963 0
-7.7423084 10.141493 0
-8.4694996 3.4546788 0
1.4296457 -7.2621162 0
1.2774848 -11.379993 0
-11.06224 -11.214503 0
-3.8730337 11.41948 0
-10.834176 -6.9667267 0
-4.4774763 4.886594 0
6.8726358 -5.3379734 0
-8.3843366 5.3234231 0
-9.9237486 0.37306675 0
-9.9867294 1.1519766 0
9.7409934 5.7420258 0
-3.5878975 0.14933565 0
2.3470171 -4.6062496 0
-8.5858824 -9.0703358 0
-2.6234355 9.944678 0
-7.6455337 0.76420335 0
-3.7371467 4.2645776 0
6.2486013 1.8501247 0
-9.7152313 -2.263627 0
-13.330251 -7.2711093 0
-6.4496196 -10.207345 0
-9.3434786 -5.3494766 0
7.3250993 0.78743531 0
-6.5817492 5.5503847 0
-0.21139224 0.31187564 0
8.5109437 3.8665842 0
-5.2633632 -8.4913762 0
-7.0298576 8.8095079 0
-1.0772023 -0.29385868 0
-6.9790249 5.2972729 0
-2.4348494 -2.4212967 0
4.2409917 7.2859752 0
2.2136538 -5.8301592 0
-3.2657827 -5.4423811 0
-2.8741629 10.074189 0
-14.016156 -3.6526216 0
-0.64799783 -0.44733998 0
4.5221716 -0.043150147 0
-5.1462638 2.7952742 0
-11.351495 1.8290151 0
-0.18595112 9.0636592 0
5.9552656 3.5601192 0
-6.7169319 10.486829 0
6.2367838 10.046361 0
-1.9479717 3.0508514 0
-7.8576733 1.4827437 0
-7.3335308 -5.9051808 0
-7.2261895 -5.8875124 0
8.2637031 -7.9403701 0
-8.2461013 5.4475566 0
-0.74116356 -9.0633624 0
1.6969052 7.7199519 0
-9.7019365 -13.330096 0
11.289702 0.14113175 0
-9.5499066 11.838916 0
-2.6608933 -5.8751624 0
-2.5268216 -2.5065902 0
-9.683976 0.98141482 0
3.2976368 -7.1956051 0
15.386778 -10.425267 0
-3.7777945 -11.58869 0
-6.9319414 6.0373116 0
1.4074834 7.3198255 0
-11.776351 0.018880766 0
-11.21131 1.2495257 0
-5.7394972 -4.1467476 0
-9.375128 -3.6057834 0
-10.121471 -0.012019698 0
-10.06557 -0.092907063 0
-3.2170846 -9.8161231 0
-9.9833289 0.01881804 0
-2.0928508 5.8072017 0
-4.961489 -8.2330366 0
-3.6773278 8.572673 0
2.3732227 -4.8038109 0
-0.65279826 -7.1662705 0
-10.236508 -5.5099471 0
8.6321232 -4.4554539 0
9.9803497 0.19156482 0
3.0025026 -1.1359719 0
-0.63420505 1.4387493 0
15.027845 2.4863166 0
-6.4536738 -0.63164573 0
-10.11339 0.38148765 0
9.9764002 -0.12776371 0
14.146159 -5.3724954 0
-6.4861537 -4.1680393 0
-0.70041912 6.2025168 0
-0.17939743 10.670194 0
4.5770144 10.147161 0
-4.8912081 4.055788 0
-2.1220802 -1.2596782 0
-9.910818 -0.076572215 0
-9.9868471 -0.082929883 0
-10.035735 0.042166925 0
-1.3992433 3.8068705 0
-14.026132 -3.4783811 0
1.5438778 4.9410783 0
-7.0983148 -3.2464746 0
3.7137645 7.6329581 0
1.9821544 11.098341 0
8.7941513 5.2895424 0
9.6597562 -0.24171402 0
9.9980485 -0.00030006667 0
9.9954703 -0.21483651 0
3.0451263 -10.74119 0
-12.73725 -3.4168973 0
-4.529464 9.7978554 0
9.9937416 -0.27048108 0
9.9979999 0.0010769847 0
9.6257349 0.28875455 0
8.7524735 -5.0055715 0
-9.325221 7.7948777 0
-5.6410222 6.2611838 0
-11.660949 2.7076408 0
-8.8463581 1.2276266 0
-4.5399663 -0.7629412 0
-10.190728 0.12506072 0
-9.989498 -0.025682259 0
-9.9914043 0.043371244 0
-10.103446 -0.44875443 0
3.7379833 6.4442908 0
-8.0259116 4.8857365 0
3.2153789 7.1384962 0
-5.2758085 -5.662788 0
8.6418304 9.2952679 0
9.7666558 -0.087933901 0
9.9918239 -0.0053397608 0
9.9995507 -4.5257737e-05 0
9.9997235 0.0009366753 0
10.001004 -0.0033812611 0
-10.229874 0.35288632 0
10.000318 0.032582792 0
9.9997328 0.0014104918 0
9.9995824 3.6717291e-05 0
9.9985729 0.00087642558 0
9.8646166 0.060157155 0
7.1469089 -6.229436 0
-4.2548413 -5.2221803 0
-0.58680346 0.48276464 0
-6.4531015 2.6600337 0
-6.1960578 7.5461322 0
-9.320396 4.7678994 0
-10.03876 -0.013837115 0
-6.5703239 -8.4618658 0
-10.015951 0.0019237657 0
-10.007701 0.065417962 0
-0.4223991 -3.5883555 0
-4.9816907 -2.1170119 0
9.9010185 -1.1998975 0
5.7594958 4.8931373 0
10.000399 -0.00045143542 0
10.000428 -2.2551569e-05 0
10.00046 -4.6443001e-07 0
10.000465 -3.6347424e-07 0
10.000641 0.00010675233 0
10.00291 -0.0012190198 0
10.000636 0.00043887431 0
10.000463 -2.1412963e-06 0
10.000465 -9.0558598e-08 0
10.000444 1.6873349e-05 0
10.000318 0.0011784784 0
6.574717 -6.1053997 0
9.9284216 1.225853 0
-4.4194206 2.558615 0
1.326892 8.4326275 0
-10.033159 -0.020123158 0
-10.00818 -0.0038249176 0
-10.000212 -0.014342905 0
-10.022629 0.03398624 0
-9.9525132 -0.30684752 0
-10.391517 0.13444783 0
-11.994791 -5.6331543 0
11.495079 1.268291 0
9.8376722 -0.062955044 0
9.9916451 -0.0014558685 0
9.9945828 -5.2070005e-05 0
9.9946167 -1.038829e-06 0
9.9946173 6.3756212e-10 0
9.9946173 -7.9081564e-09 0
9.994617 2.3024039e-07 0
9.9946335 -5.0743774e-07 0
9.9946172 1.8085293e-07 0
9.9946172 -2.7233979e-08 0
9.9946173 -5.3661932e-10 0
9.9946163 1.6704128e-06 0
9.9945792 4.7881803e-05 0
9.9924981 0.001101072 0
9.8751516 0.050661414 0
10.410135 -0.22173505 0
-11.997138 2.786997 0
-9.9554993 -0.17932511 0
-10.014178 1.9188814e-05 0
-10.013481 -0.013477409 0
-3.6985084 7.0744526 0
-5.782879 -5.1031987 0
-4.3628579 -11.556727 0
3.8621941 -4.5265408 0
-2.7130513 -16.996051 0
-11.784038 -11.938639 0
-6.4275056 -6.8718158 0
0.069936982 1.8104705 0
12.977102 7.5428203 0
-17.818205 -2.8995931 0
1.9606186 11.659904 0
7.4984048 8.8355688 0
-8.3170103 12.59774 0
-0.95723553 -4.2148276 0
-6.0780641 -3.1880334 0
-8.4593964 -21.400386 0
4.445279 9.0083237 0
6.2110632 4.7137258 0
-2.0329529 1.1085633 0
-6.9107185 -3.2767831 0
0.21191176 -2.8189536 0
1.8076027 14.348921 0
-1.588992 1.1799319 0
-6.4981287 -4.4166243 0
3.7029719 13.667911 0
-2.6309649 -13.726701 0
-0.88652159 -11.231889 0
-5.3659565 -9.6142256 0
-5.736291 -7.0867747 0
-4.4403261 0.84672507 0
6.3905262 5.3281633 0
2.4079528 0.84574085 0
-3.7092759 9.8507967 0
-2.1875986 2.7751059 0
16.536402 -10.879841 0
-14.773662 2.4683181 0
6.1750516 -0.82629812 0
-0.5897436 -3.2700721 0
-9.2065236 7.2928592 0
-14.257135 -8.814676 0
6.6737364 -3.7100423 0
-1.4200524 -8.182823 0
-22.846002 1.1147858 0
-1.2500812 1.9019429 0
5.3167086 -4.601651 0
-8.6009495 6.7844655 0
-0.031937905 1.0724809 0
-5.3823553 9.5586965 0
8.0509387 7.2897213 0
-2.630965 13.726701 0
0.30462605 -9.4772659 0
10.40061 -9.1704818 0
7.3291952 0.83833982 0
4.4545606 -4.820602 0
5.3440911 3.880452 0
2.7557484 10.623513 0
5.3039599 -12.952768 0
2.7576994 -13.393807 0
3.0747861 -7.3894985 0
-2.4426985 -7.5248744 0
0.2555975 -0.42881013 0
3.5540912 2.5211368 0
9.0840743 16.125611 0
9.8710836 -9.0341841 0
-1.8309505 7.2819506 0
-18.597907 -0.21587744 0
3.7256917 0.035324878 0
1.7822689 -0.26111289 0
-1.636503 9.9658032 0
4.620244 3.7680625 0
0.041173001 2.6241872 0
6.5311654 5.0015044 0
-4.150291 3.0631805 0
2.8170881 2.83612 0
0.2723674 9.4619399 0
-0.043970024 -3.5910307 0
-6.8350487 -10.617899 0
-4.8069778 -3.46847 0
4.921575 1.9793273 0
3.1347687 -5.8514917 0
-0.83732257 -14.055009 0
12.298124 -0.9240226 0
-7.3666384 -0.17370725 0
-7.8849075 2.7090155 0
3.1621914 -4.2562565 0
-2.5533807 -0.90936879 0
-8.5488176 -9.27328 0
6.4681926 -9.4524344 0
17.827823 3.2407738 0
0.77820012 -7.5737188 0
-6.615918 7.2554951 0
-6.6810786 1.6033582 0
-3.5171808 3.1067425 0
2.6970122 5.3225503 0
-9.6478613 -0.24904589 0
3.4677654 -4.8517976 0
0.6628419 0.80101763 0
9.1502892 13.413614 0
-6.8350545 10.617888 0
0.090528461 3.5345861 0
10.368656 6.8179028 0
3.1837003 2.4176241 0
-9.6122197 -8.4201806 0
3.6996883 -4.4084353 0
5.4527399 -18.119729 0
10.041112 8.6943783 0
13.68863 5.2638147 0
5.3205511 7.9126116 0
3.4427169 -6.856957 0
2.9905363 2.976642 0
-14.312872 -12.69124 0
12.404378 -21.663392 0
-9.8585673 -4.0777867 0
-3.5595565 5.7701237 0
9.1734389 -11.990565 0
-4.0990154 13.282405 0
-0.22889757 -6.3682203 0
1.6763727 -5.5233907 0
9.2408745 -0.78761543 0
-0.59854746 -0.21477919 0
7.663875 2.393714 0
3.2139081 -9.3149235 0