# vtk DataFile Version 4.0
hesp visualization file
ASCII
DATASET UNSTRUCTURED_GRID
POINTS 32 double
3.9944844 1.1444843 4
4.0126311 2.2525396 4
4.0126311 3.3597706 4
3.9944844 4.4678259 4
5.1025398 1.162631 4
5.1091617 2.2591616 4
5.1091617 3.3531487 4
5.1025398 4.4496793 4
6.209771 1.162631 4
6.2031491 2.2591616 4
6.2031491 3.3531487 4
6.209771 4.4496792 4
7.3178265 1.1444844 4
7.2996799 2.2525396 4
7.2996799 3.3597706 4
7.3178265 4.4678258 4
14.294484 1.1444844 4
14.31263 2.2525396 4
14.31263 3.3597706 4
14.294484 4.4678258 4
15.402539 1.162631 4
15.409161 2.2591616 4
15.409161 3.3531487 4
15.402539 4.4496792 4
16.50977 1.162631 4
16.503149 2.2591616 4
16.503149 3.3531487 4
16.50977 4.4496793 4
17.617826 1.1444843 4
17.599679 2.2525396 4
17.599679 3.3597706 4
17.617826 4.4678259 4
CELLS 0 0
CELL_TYPES 0
POINT_DATA 32
SCALARS m double
LOOKUP_TABLE default
1
1
1
1
1
1
1
1
1
1
1
1
1
1
1
1
1
1
1
1
1
1
1
1
1
1
1
1
1
1
1
1
VECTORS v double
10.107894 0.10789255 0
10.195052 0.054875068 0
10.195052 -0.054875068 0
10.107894 -0.10789255 0
10.054877 0.19505061 0
10.112614 0.11261169 0
10.112614 -0.11261169 0
10.054877 -0.19505061 0
9.9451296 0.19505087 0
9.8873935 0.11261179 0
9.8873935 -0.11261179 0
9.9451296 -0.19505087 0
9.8921159 0.10789374 0
9.8049586 0.054875545 0
9.8049586 -0.054875545 0
9.8921159 -0.10789374 0
-9.8921159 0.10789374 0
-9.8049586 0.054875545 0
-9.8049586 -0.054875545 0
-9.8921159 -0.10789374 0
-9.9451296 0.19505087 0
-9.8873935 0.11261179 0
-9.8873935 -0.11261179 0
-9.9451296 -0.19505087 0
-10.054877 0.19505061 0
-10.112614 0.11261169 0
-10.112614 -0.11261169 0
-10.054877 -0.19505061 0
-10.107894 0.10789255 0
-10.195052 0.054875068 0
-10.195052 -0.054875068 0
-10.107894 -0.10789255 0
