# vtk DataFile Version 4.0
hesp visualization file
ASCII
DATASET UNSTRUCTURED_GRID
POINTS 1250 double
34.053825 3.8754972 4
30.157845 2.1556068 4
33.518694 4.846608 4
31.79514 3.8725421 4
30.139738 5.7374264 4
30.789727 6.7309414 4
31.454802 7.8750258 4
30.514454 8.9996965 4
30.515869 10.102161 4
30.515871 11.224619 4
30.515402 12.367721 4
30.457651 13.694454 4
31.292562 15.199942 4
30.454984 15.48506 4
30.515871 16.836957 4
30.515871 17.959393 4
30.515869 19.081853 4
30.386105 20.165733 4
30.758503 20.160522 4
30.14917 20.868698 4
31.860025 23.289667 4
32.152384 24.921417 4
33.890457 24.62338 4
30.175659 27.016847 4
33.839492 25.742935 4
30.369878 -6.5851064 4
34.345381 1.5367701 4
30.531559 0.21192487 4
32.010606 4.4790022 4
33.454488 6.0248471 4
31.325946 6.9421904 4
31.43144 7.4763322 4
31.08329 9.2961957 4
30.810992 10.1039 4
30.809911 11.224623 4
30.810092 12.332944 4
30.843944 13.286687 4
29.978852 14.094607 4
30.845494 15.901163 4
30.809909 16.836905 4
30.809911 17.959391 4
30.810854 19.08026 4
31.084252 19.88349 4
31.033673 21.499302 4
31.254005 22.27971 4
31.192072 22.591662 4
31.457557 24.50669 4
30.535505 28.969611 4
34.345372 27.647239 4
30.369878 35.76912 4
31.810934 0.55852728 4
32.250677 3.8743778 4
31.201521 5.8459976 4
32.09594 5.5389493 4
30.88415 5.0365978 4
31.114816 8.5769682 4
32.101563 10.512117 4
31.791235 8.7235302 4
31.84196 10.099684 4
31.841688 11.224605 4
31.84149 12.359618 4
31.807104 13.637221 4
32.672664 15.062553 4
31.805403 15.543009 4
31.841681 16.83695 4
31.841685 17.959402 4
31.842071 19.084157 4
31.584931 20.714435 4
32.149537 18.808263 4
30.965059 20.748397 4
31.025349 23.64406 4
33.663291 23.986035 4
31.603711 23.837566 4
32.280346 25.341933 4
31.811212 28.625351 4
31.635581 -1.6521896 4
30.308663 -2.8794736 4
32.026691 2.8115938 4
32.991032 3.9661685 4
30.144839 6.3572217 4
31.169435 7.7542258 4
32.647046 8.2780279 4
32.168602 9.1611748 4
33.003111 11.077662 4
32.135949 11.224517 4
32.135928 12.341471 4
32.144095 13.375801 4
31.238012 14.335971 4
32.144594 15.810278 4
32.135902 16.836918 4
32.135924 17.95946 4
33.299338 18.148652 4
32.164951 20.035538 4
32.642329 20.969239 4
30.189158 22.124315 4
32.157443 24.506448 4
32.981854 25.302416 4
32.021887 26.36365 4
30.308665 32.063487 4
31.635581 30.836203 4
33.601578 5.1030052 4
30.791006 3.756388 4
30.159962 1.4967043 4
35.061881 4.5160355 4
33.382599 7.1828936 4
31.58669 6.5392292 4
32.371661 7.8744986 4
32.673489 8.8858175 4
32.755573 9.6943297 4
33.188658 11.252664 4
33.167792 12.35168 4
33.159582 13.549452 4
32.953128 15.435575 4
33.176357 15.739261 4
33.167821 16.836939 4
33.162267 17.948905 4
32.484324 19.292922 4
32.619128 20.286588 4
32.445999 21.592977 4
31.737215 22.360359 4
31.929532 22.118801 4
34.115981 23.747329 4
30.159448 27.682805 4
30.785756 25.427342 4
34.216142 25.154795 4
30.861285 -1.2317542 4
32.591673 -1.7357365 4
35.675163 5.262863 4
31.864723 6.5051076 4
33.92013 6.5275067 4
32.392851 7.4193606 4
33.50244 8.084835 4
33.462521 8.9773157 4
33.462505 10.102171 4
33.462221 11.224597 4
33.462205 12.345797 4
33.462915 13.441075 4
33.639472 13.791298 4
33.462957 15.744601 4
33.462203 16.836927 4
33.462344 17.95921 4
33.462509 19.081832 4
33.462521 20.205369 4
33.501646 21.101603 4
32.443812 22.300076 4
34.276652 21.65448 4
31.800367 22.686359 4
35.682565 23.850239 4
32.591845 30.919797 4
30.861283 30.415768 4
31.840771 1.7591262 4
36.295217 2.9474432 4
31.290934 2.451189 4
33.084976 4.9294048 4
32.09896 5.8931815 4
34.479825 6.9060856 4
34.434722 7.7058787 4
34.49429 8.981406 4
34.494481 10.102151 4
34.494487 11.224621 4
34.494487 12.348064 4
34.493664 13.493044 4
33.715767 14.919606 4
34.493647 15.690349 4
34.494488 16.836933 4
34.494487 17.959393 4
34.494481 19.081862 4
34.494298 20.203619 4
34.455113 21.4392 4
33.658425 22.46689 4
32.439848 22.868285 4
33.365688 24.495971 4
31.253126 26.693462 4
36.293633 26.235832 4
31.841691 27.424563 4
37.600136 -4.0148633 4
34.297 3.6571051 4
35.758253 2.3379354 4
33.8373 6.0434918 4
35.51187 5.535501 4
34.768804 6.7388749 4
34.782043 7.8571623 4
34.788792 8.979543 4
34.788777 10.102158 4
34.788777 11.22462 4
34.788777 12.346927 4
34.788804 13.46405 4
35.40147 14.082856 4
34.788801 15.720136 4
34.788777 16.83693 4
34.788777 17.959393 4
34.788777 19.081855 4
34.788792 20.204312 4
34.792056 21.319374 4
34.769785 22.420772 4
36.309476 23.581448 4
33.63779 22.81573 4
35.756741 26.84532 4
34.293503 25.529617 4
37.600136 33.198877 4
32.832758 3.1946434 4
33.57913 1.9091894 4
36.774443 2.7434361 4
36.462072 5.3302647 4
36.321373 6.4385019 4
35.814561 6.7596749 4
35.821791 7.8592668 4
35.771912 9.0737565 4
35.821681 10.102158 4
35.821681 11.22462 4
35.821681 12.347194 4
35.821645 13.473717 4
35.15903 14.884933 4
35.82165 15.710213 4
35.821681 16.836931 4
35.821681 17.959393 4
35.821681 19.081855 4
35.767496 20.113032 4
35.821965 21.337295 4
35.813506 22.441811 4
35.406871 22.876931 4
36.680021 23.826522 4
36.758722 26.456161 4
33.579204 27.274504 4
32.591459 25.696216 4
32.0032 1.0962408 4
34.790964 -1.3154519 4
35.392196 2.9359997 4
35.962335 4.500219 4
35.908238 8.7965002 4
36.168454 6.9712881 4
36.115461 7.8346346 4
36.115292 8.9795343 4
36.115515 10.102158 4
36.115516 11.22462 4
36.115516 12.347075 4
36.115514 13.468987 4
36.133803 14.442329 4
36.115516 15.715048 4
36.115516 16.836931 4
36.115516 17.959393 4
36.115515 19.081855 4
36.11566 20.204202 4
36.11546 21.349397 4
36.116098 22.49789 4
35.921309 20.380464 4
36.00365 24.65769 4
35.393949 26.246362 4
34.790964 30.499463 4
32.002759 28.093959 4
32.173104 0.78709945 4
35.719994 1.7924349 4
36.811357 5.0677155 4
35.562746 3.8258356 4
37.191054 5.2850959 4
37.159455 6.7820543 4
37.13859 7.8715705 4
37.149202 8.9797041 4
37.149211 10.102158 4
37.149211 11.22462 4
37.149211 12.347088 4
37.149211 13.469945 4
37.129799 14.70206 4
37.149211 15.714057 4
37.149211 16.836931 4
37.149211 17.959393 4
37.149211 19.081855 4
37.149202 20.204315 4
37.138842 21.312381 4
37.158388 22.395619 4
37.060497 23.850555 4
35.605309 25.456559 4
36.597115 24.197556 4
35.719458 27.392215 4
32.173077 28.396898 4
33.847336 0.834738 4
36.929176 1.0313752 4
37.147446 7.5145196 4
36.794844 3.6773706 4
36.506253 5.624485 4
37.442719 6.7017949 4
37.442243 7.8571835 4
37.442303 8.9796965 4
37.442304 10.102158 4
37.442304 11.22462 4
37.442304 12.347083 4
37.442304 13.469521 4
37.442455 14.579135 4
37.442304 15.714493 4
37.442304 16.836931 4
37.442304 17.959393 4
37.442304 19.081855 4
37.442303 20.204317 4
37.442245 21.326827 4
37.442759 22.482984 4
36.742763 23.495417 4
36.791276 25.508351 4
37.144233 21.670903 4
36.929646 28.155352 4
33.847342 28.349284 4
34.892244 1.127678 4
35.023957 1.8009103 4
38.270614 2.61786 4
38.637607 5.2563472 4
37.647949 5.5593215 4
38.470165 6.7568127 4
38.476783 7.8572254 4
38.476796 8.979696 4
38.476796 10.102158 4
38.476796 11.22462 4
38.476796 12.347083 4
38.476796 13.469561 4
38.476658 14.601121 4
38.476796 15.714452 4
38.476796 16.836931 4
38.476796 17.959393 4
38.476796 19.081855 4
38.476796 20.204317 4
38.476783 21.326788 4
38.47007 22.426678 4
37.646796 23.565079 4
38.643558 23.930637 4
38.264755 26.557749 4
35.024464 27.384086 4
34.892245 28.056334 4
35.915561 0.79164855 4
37.718435 1.4600385 4
37.049116 3.2562463 4
37.847953 4.4396602 4
38.782023 5.7411592 4
38.769049 6.7348442 4
38.769056 7.8572314 4
38.769056 8.9796964 4
38.769056 10.102158 4
38.769056 11.22462 4
38.769056 12.347083 4
38.769056 13.469545 4
38.769056 14.591539 4
38.769056 15.714469 4
38.769056 16.836931 4
38.769056 17.959393 4
38.769056 19.081855 4
38.769056 20.204317 4
38.769056 21.326782 4
38.769049 22.449164 4
38.769246 23.587767 4
37.847764 24.742002 4
37.048964 25.922762 4
37.719687 27.725102 4
35.915712 28.390249 4
37.391669 1.1368819 4
37.250615 2.0007286 4
38.08898 2.9628426 4
38.989467 4.6800725 4
39.788693 5.5215531 4
39.804145 6.734731 4
39.804154 7.8572362 4
39.804154 8.9796964 4
39.804154 10.102158 4
39.804154 11.22462 4
39.804154 12.347083 4
39.804154 13.469545 4
39.804154 14.592326 4
39.804154 15.714469 4
39.804154 16.836931 4
39.804154 17.959393 4
39.804154 19.081855 4
39.804154 20.204317 4
39.804154 21.326777 4
39.804146 22.449283 4
39.802489 23.561365 4
38.988445 24.510454 4
38.08906 26.222063 4
37.253596 27.191398 4
37.391885 28.045966 4
38.25935 1.1266596 4
38.257764 2.2472461 4
39.663608 4.5810138 4
40.272106 4.0523477 4
40.095753 5.6170544 4
40.095735 6.7347704 4
40.095735 7.8572343 4
40.095735 8.9796964 4
40.095735 10.102158 4
40.095735 11.22462 4
40.095735 12.347083 4
40.095735 13.469545 4
40.095735 14.592007 4
40.095735 15.714469 4
40.095735 16.836931 4
40.095735 17.959393 4
40.095735 19.081855 4
40.095735 20.204317 4
40.095735 21.326779 4
40.095735 22.449243 4
40.095733 23.571538 4
40.261356 25.120842 4
39.665434 24.601171 4
38.257863 26.936895 4
38.259349 28.057353 4
39.381854 1.1266305 4
39.381873 2.2449543 4
41.529166 2.4798001 4
40.93468 4.7846221 4
41.131036 5.6091073 4
41.131064 6.7347737 4
41.131064 7.8572343 4
41.131064 8.9796964 4
41.131064 10.102158 4
41.131064 11.22462 4
41.131064 12.347083 4
41.131064 13.469545 4
41.131064 14.592007 4
41.131064 15.714469 4
41.131064 16.836931 4
41.131064 17.959393 4
41.131064 19.081855 4
41.131064 20.204317 4
41.131064 21.326779 4
41.131064 22.44924 4
41.131055 23.571769 4
40.946516 24.405485 4
41.527147 26.705507 4
39.381874 26.939059 4
39.381854 28.057383 4
40.504317 1.1266311 4
40.504557 2.2458548 4
40.50017 3.3590824 4
41.422972 4.4679364 4
41.422345 5.6122538 4
41.422346 6.7347723 4
41.422346 7.8572343 4
41.422346 8.9796964 4
41.422346 10.102158 4
41.422346 11.22462 4
41.422346 12.347083 4
41.422346 13.469545 4
41.422346 14.592007 4
41.422346 15.714469 4
41.422346 16.836931 4
41.422346 17.959393 4
41.422346 19.081855 4
41.422346 20.204317 4
41.422346 21.326779 4
41.422346 22.449241 4
41.422345 23.57176 4
41.422951 24.715539 4
40.500201 25.824852 4
40.504561 26.938149 4
40.504317 28.057382 4
41.626779 1.1266303 4
41.627105 2.243865 4
41.626744 3.3673656 4
[...]
POINT_DATA 1250
SCALARS m double
LOOKUP_TABLE default
1
1
1
1
1
1
1
1
1
1
1
1
1
1
1
1
1
1
1
1
1
1
1
1
1
1
1
1
1
1
1
1
1
1
1
1
1
1
1
1
1
1
1
1
1
1
1
1
1
1
1
1
1
1
1
1
1
1
1
1
1
1
1
1
1
1
1
1
1
1
1
1
1
1
1
1
1
1
1
1
1
1
1
1
1
1
1
1
1
1
1
1
1
1
1
1
1
1
1
1
1
1
1
1
1
1
1
1
1
1
1
1
1
1
1
1
1
1
1
1
1
1
1
1
1
1
1
1
1
1
1
1
1
1
1
1
1
1
1
1
1
1
1
1
1
1
1
1
1
1
1
1
1
1
1
1
1
1
1
1
1
1
1
1
1
1
1
1
1
1
1
1
1
1
1
1
1
1
1
1
1
1
1
1
1
1
1
1
1
1
1
1
1
1
1
1
1
1
1
1
1
1
1
1
1
1
1
1
1
1
1
1
1
1
1
1
1
1
1
1
1
1
1
1
1
1
1
1
1
1
1
1
1
1
1
1
1
1
1
1
1
1
1
1
1
1
1
1
1
1
1
1
1
1
1
1
1
1
1
1
1
1
1
1
1
1
1
1
1
1
1
1
1
1
1
1
1
1
1
1
1
1
1
1
1
1
1
1
1
1
1
1
1
1
1
1
1
1
1
1
1
1
1
1
1
1
1
1
1
1
1
1
1
1
1
1
1
1
1
1
1
1
1
1
1
1
1
1
1
1
1
1
1
1
1
1
1
1
1
1
1
1
1
1
1
1
1
1
1
1
1
1
1
1
1
1
1
1
1
1
1
1
1
1
1
1
1
1
1
1
1
1
1
1
1
1
1
1
1
1
1
1
1
1
1
1
1
1
1
1
1
1
1
1
1
1
1
1
1
1
1
1
1
1
1
1
1
1
1
1
1
1
1
1
1
1
1
1
1
1
1
1
1
1
1
1
1
1
1
1
1
1
1
1
1
1
1
1
1
1
1
1
1
1
1
1
1
1
1
1
1
1
1
1
1
1
1
1
1
1
1
1
1
1
1
1
1
1
1
1
1
1
1
1
1
1
1
1
1
1
1
1
1
1
1
1
1
1
1
1
1
1
1
1
1
1
1
1
1
1
1
1
1
1
1
1
1
1
1
1
1
1
1
1
1
1
1
1
1
1
1
1
1
1
1
1
1
1
1
1
1
1
1
1
1
1
1
1
1
1
1
1
1
1
1
1
1
1
1
1
1
1
1
1
1
1
1
1
1
1
1
1
1
1
1
1
1
1
1
1
1
1
1
1
1
1
1
1
1
1
1
1
1
1
1
1
1
1
1
1
1
1
1
1
1
1
1
1
1
1
1
1
1
1
1
1
1
1
1
1
1
1
1
1
1
1
1
1
1
1
1
1
1
1
1
1
1
1
1
1
1
1
1
1
1
1
1
1
1
1
1
1
1
1
1
1
1
1
1
1
1
1
1
1
1
1
1
1
1
1
1
1
1
1
1
1
1
1
1
1
1
1
1
1
1
1
1
1
1
1
1
1
1
1
1
1
1
1
1
1
1
1
1
1
1
1
1
1
1
1
1
1
1
1
1
1
1
1
1
1
1
1
1
1
1
1
1
1
1
1
1
1
1
1
1
1
1
1
1
1
1
1
1
1
1
1
1
1
1
1
1
1
1
1
1
1
1
1
1
1
1
1
1
1
1
1
1
1
1
1
1
1
1
1
1
1
1
1
1
1
1
1
1
1
1
1
1
1
1
1
1
1
1
1
1
1
1
1
1
1
1
1
1
1
1
1
1
1
1
1
1
1
1
1
1
1
1
1
1
1
1
1
1
1
1
1
1
1
1
1
1
1
1
1
1
1
1
1
1
1
1
1
1
1
1
1
1
1
1
1
1
1
1
1
1
1
1
1
1
1
1
1
1
1
1
1
1
1
1
1
1
1
1
1
1
1
1
1
1
1
1
1
1
1
1
1
1
1
1
1
1
1
1
1
1
1
1
1
1
1
1
1
1
1
1
1
1
1
1
1
1
1
1
1
1
1
1
1
1
1
1
1
1
1
1
1
1
1
1
1
1
1
1
1
1
1
1
1
1
1
1
1
1
1
1
1
1
1
1
1
1
1
1
1
1
1
1
1
1
1
1
1
1
1
1
1
1
1
1
1
1
1
1
1
1
1
1
1
1
1
1
1
1
1
1
1
1
1
1
1
1
1
1
1
1
1
1
1
1
1
1
1
1
1
1
1
1
1
1
1
1
1
1
1
1
1
1
1
1
1
1
1
1
1
1
1
1
1
1
1
1
1
1
1
1
1
1
1
1
1
1
1
1
1
1
1
1
1
1
1
1
1
1
1
1
1
1
1
1
1
1
1
1
1
1
1
1
1
1
1
1
1
1
1
1
1
1
1
1
1
1
1
1
1
1
1
1
1
1
1
1
1
1
1
1
1
1
1
1
1
1
1
1
1
1
1
1
1
1
1
1
1
1
1
1
1
1
1
1
1
1
1
1
1
1
1
1
1
1
1
1
1
1
1
1
1
1
1
1
1
1
1
1
1
1
1
1
1
1
1
1
1
1
1
1
1
1
1
1
1
1
1
1
1
1
1
1
1
1
1
1
1
1
1
1
1
1
1
1
1
1
1
1
1
1
1
1
1
1
1
1
1
1
1
1
1
1
1
1
1
1
1
1
1
1
1
1
1
1
1
1
1
1
1
1
1
1
1
1
1
1
1
1
1
1
1
1
1
1
1
1
1
1
1
1
1
1
1
1
1
1
1
1
1
1
1
1
1
1
1
1
1
1
1
1
1
1
1
1
1
VECTORS v double
3.5410517 7.5903317 0
5.8899935 -10.977693 0
4.2369466 4.4197284 0
-7.6301435 -7.0742859 0
-3.3903025 -4.5542394 0
0.95489073 0.85607353 0
12.568131 2.0748355 0
9.9892255 0.45195746 0
9.9672191 -0.00037292233 0
9.9604532 -5.2787438e-05 0
9.9658848 0.45911294 0
8.7068367 4.9243205 0
8.9810555 4.4063511 0
8.6481422 -5.0157388 0
9.96044 0.00056507658 0
9.9604504 1.312967e-06 0
9.9663843 0.00046397004 0
-1.9837459 -3.5188784 0
13.020749 -9.9520042 0
-2.1204407 -9.1133176 0
7.2377521 -5.1646308 0
8.2275712 5.64041 0
14.97939 -5.515165 0
6.3978977 7.6559753 0
-4.5373588 8.890164 0
-2.6343275 -13.726701 0
6.0814854 4.577638 0
5.4277876 -9.7858553 0
10.147683 1.2973872 0
12.828871 -3.2766728 0
-7.5489381 2.1406482 0
-3.7936555 -5.1826858 0
-3.8574204 7.9818614 0
-9.9521013 0.042343698 0
-9.9627218 5.9437907e-05 0
-9.9745267 -0.30485193 0
-9.2538278 -3.9043848 0
-9.3692556 -3.587624 0
-9.2179885 3.9843575 0
-9.9627572 -0.00077327746 0
-9.9627374 -3.4806082e-05 0
-9.9536522 -0.038669568 0
-3.8318974 -8.0208813 0
-9.7814284 2.1594506 0
-2.8132119 0.36611684 0
-9.8886819 5.4191864 0
-8.2150567 -6.4199979 0
5.4415725 9.7818007 0
6.0813317 -4.5777852 0
-2.6343276 13.726701 0
0.10349728 -9.4546755 0
6.7352039 7.972202 0
-8.6819621 5.9709587 0
2.6853682 0.45234651 0
8.5303366 -5.4570949 0
-11.413151 2.5371229 0
-1.9197484 9.5407927 0
13.63116 1.5559771 0
10.039124 -0.026302276 0
9.9603114 -0.001057022 0
9.9600729 0.28493829 0
9.2611129 3.7237647 0
9.3777864 3.4397397 0
9.2182677 -3.8113589 0
9.9595321 0.0004542591 0
9.9598561 0.00042842998 0
10.065589 0.01809828 0
4.1027189 10.112892 0
-1.3627073 -7.361014 0
2.8577814 -13.352261 0
10.008326 0.268426 0
5.745108 4.1865828 0
-0.34873435 5.4820378 0
7.2108952 -7.5069861 0
0.11109853 9.4488477 0
-0.49786759 -3.6822623 0
6.8388907 -10.619294 0
-4.7993396 -5.3714029 0
5.987512 -1.0707411 0
-13.308935 -2.9699359 0
0.86193789 9.8113907 0
6.4619287 11.78783 0
-8.5353185 5.1528381 0
0.8991386 9.2273969 0
-9.9632087 -0.005092783 0
-9.9699111 -0.12033986 0
-9.8516643 -1.957947 0
-9.8550863 -1.8133099 0
-9.8377219 2.0002327 0
-9.965716 -0.00033248082 0
-9.9648061 0.0024531514 0
17.183175 -9.9942714 0
-8.4684683 -5.1611401 0
5.9992519 -8.5685748 0
-8.7917344 5.5936378 0
3.082983 10.218945 0
6.0293072 2.1510012 0
-4.8235129 5.329524 0
6.8388969 10.6193 0
-0.49786709 3.6822639 0
-3.4030621 16.79709 0
8.2023687 4.3298159 0
8.8058243 -4.9111808 0
9.1639567 -5.1111768 0
-6.2929214 12.519148 0
-3.3374164 -7.9567261 0
-9.041259 4.3031986 0
4.1210226 -4.0487487 0
-0.81809073 -9.1034247 0
17.551309 9.6724287 0
9.9594622 0.10660722 0
9.8681321 1.8092725 0
-4.683087 0.71653381 0
11.438998 7.5343003 0
9.9595357 0.00019385649 0
6.624969 -5.9041958 0
-6.8198162 4.7525946 0
3.5191537 4.0533056 0
-6.1750095 7.3360283 0
-1.0084047 -2.2155487 0
-5.6792162 -8.3037123 0
0.63466867 -11.866445 0
8.8042489 4.8790794 0
8.1587241 -4.3156808 0
5.8128412 -6.742343 0
-1.1229698 -6.3273619 0
-1.9942734 -10.927221 0
9.1064001 -1.4036713 0
-6.4511251 10.645822 0
2.7257969 -4.0097106 0
-9.5544346 -6.0708188 0
-9.0882065 4.6310746 0
-10.006605 -0.048830305 0
-10.007308 0.00015358978 0
-9.8102986 -0.026454268 0
-9.9680667 -0.027591169 0
-10.01901 -0.50469019 0
2.764838 -9.0979276 0
-9.9009713 0.62026899 0
-9.9675558 -9.9413826e-05 0
-9.2801878 -0.80085049 0
-10.006841 -0.0010916504 0
-10.006324 0.021562033 0
-9.1055558 -4.58081 0
-10.908588 -1.3038369 0
-0.10135024 -1.8057006 0
-7.6548051 -10.824979 0
6.6529435 -9.0957337 0
-1.9936874 10.927387 0
-1.1229759 6.3273654 0
-2.3881051 9.4835604 0
1.6961546 3.5518904 0
-6.4090082 -6.866893 0
6.6445353 5.7268006 0
-14.714971 2.5285177 0
4.1924813 3.0681477 0
8.9809482 -3.7403812 0
9.9591282 0.041076672 0
9.9592555 -0.00017249584 0
9.9592409 -8.0496086e-07 0
9.9592541 0.023201681 0
9.953879 0.54795726 0
-9.4630417 3.4756365 0
9.9546152 -0.5621591 0
9.9592606 7.014598e-05 0
9.9591997 1.2574373e-05 0
9.9592497 0.00015326864 0
9.9591707 -0.017140552 0
13.176229 -3.7702067 0
-10.147205 0.20596688 0
-11.602804 -7.5306505 0
6.2171661 -4.4767154 0
-6.856375 6.4047157 0
1.6752103 -3.5495446 0
-2.35617 -9.4954181 0
4.8370531 -9.9977527 0
-5.8817408 -7.3858025 0
1.7450959 -3.4350313 0
-3.6489613 4.8354708 0
-6.2864364 6.0662941 0
-10.251689 -0.037532736 0
-10.142918 -0.013065312 0
-9.9673665 -0.003536691 0
-9.9666961 -8.5541021e-06 0
-9.9666711 2.9912326e-07 0
-9.966686 -0.0033808994 0
-9.9788952 -0.11636109 0
4.9404452 -9.6352283 0
-9.9798223 0.12052555 0
-9.9666646 -1.1361164e-05 0
-9.9666789 5.5163229e-07 0
-9.9666976 7.0100229e-06 0
-9.9673094 8.9723445e-05 0
-9.9913081 -0.16804957 0
-10.171925 -0.42671615 0
-9.6498555 0.73240579 0
-4.843572 -7.0338882 0
1.7400686 3.4316557 0
-5.2834167 8.0225364 0
4.8370532 9.9977527 0
-1.2911705 -6.492834 0
-9.8581485 -1.5966619 0
6.0464445 -7.2039407 0
-6.1159832 7.0896732 0
2.7081882 -3.1508205 0
9.9836875 0.39591215 0
9.9708339 0.056959879 0
0.3341424 18.457481 0
9.9577298 -6.0880416e-05 0
9.9577275 -4.4164362e-07 0
9.9577263 0.0026837645 0
9.956678 0.10038814 0
-5.489981 7.1635369 0
9.9574132 -0.10109533 0
9.9577266 1.3872665e-05 0
9.9577275 3.4084048e-07 0
9.95773 6.0696908e-05 0
-0.64784707 -18.071478 0
9.9628765 0.20343071 0
9.9364217 0.046909542 0
-8.0725126 -5.7755489 0
4.4658968 0.86898575 0
5.9906734 7.2627966 0
-9.8577954 1.5952024 0
-4.2009414 3.0178232 0
1.5484055 -4.3079544 0
-3.9332505 -8.2576477 0
2.6869511 -3.3843151 0
-0.27736942 -0.41242165 0
8.2498738 -1.0507929 0
-7.4146295 13.843765 0
-9.9637463 -0.46288445 0
-9.811584 0.22213688 0
-9.9626949 -4.6335133e-05 0
-9.9626837 -3.6270676e-07 0
-9.9626846 -0.00017745373 0
-9.9632845 -0.01206744 0
-9.6012407 -3.0552496 0
-9.9631094 0.012866997 0
-9.9626835 -7.2667877e-07 0
-9.9626837 3.3438127e-07 0
-9.9626948 4.697862e-05 0
-9.4317759 -0.54150157 0
-9.9578685 0.4604049 0
-9.9945458 1.0610573 0
8.7986004 0.91837375 0
0.12068294 -0.10320896 0
2.6979669 3.3748581 0
-3.9332482 8.2576419 0
1.5144066 4.3533652 0
-11.601868 -1.0139528 0
-9.9932093 -1.0878069 0
2.316644 2.099343 0
-7.3203553 -7.2859857 0
11.532989 0.099756428 0
10.082496 1.0620247 0
9.8475876 0.30310235 0
9.9543413 0.00015293031 0
9.9545767 -6.1534276e-06 0
9.9545815 9.880612e-10 0
9.9545812 0.00012750833 0
9.9545556 0.0096212489 0
9.6337556 2.5892571 0
9.9545904 -0.010003175 0
9.9545817 1.9316916e-06 0
9.9545815 -3.440252e-09 0
9.9545766 6.3894904e-06 0
9.9543287 -1.9634941e-05 0
9.8486194 -0.30475846 0
10.090831 -1.1971409 0
8.9802342 -4.6848205 0
-6.742223 8.4923416 0
-7.633451 0.44551231 0
-9.9982882 1.0947451 0
-11.60393 1.0133821 0
-7.9811598 -7.191495 0
-9.7829925 -5.4801938 0
-0.7864129 15.796536 0
-10.900384 0.030315911 0
-10.190003 -0.022648316 0
-9.9556025 -0.67897913 0
-10.021456 -0.013739319 0
-9.9564359 -1.4216124e-05 0
-9.9563607 -1.2068919e-06 0
-9.9563587 -2.9915047e-09 0
-9.9563587 -1.4152396e-06 0
-9.9563557 -0.00058909932 0
-10.052121 -0.24782044 0
-9.9563801 0.00055732379 0
-9.9563587 -3.7824246e-07 0
-9.9563587 1.1221741e-09 0
-9.9563608 1.2662756e-06 0
-9.9564388 1.3337684e-05 0
-10.020227 0.013253408 0
-9.9721998 0.69067226 0
10.185136 -7.1006689 0
-10.968156 0.012360695 0
-0.78270319 -15.771456 0
-9.7532569 5.5766139 0
-7.981004 7.1917006 0
-9.9982282 0.023324025 0
-8.9542798 -3.4352476 0
3.6982109 1.4308442 0
4.0707249 5.5810789 0
-9.9917801 -0.5631099 0
9.906153 0.53846437 0
9.9502576 -0.00026168866 0
9.9503805 -1.0653743e-05 0
9.9503858 3.2145898e-10 0
9.9503858 1.0202781e-11 0
9.9503858 1.4810906e-07 0
9.9503856 0.00038926867 0
9.9494939 0.22017365 0
9.950386 -0.00041043757 0
9.9503858 1.2297661e-07 0
9.9503858 -7.7428504e-11 0
9.9503858 -4.1246603e-10 0
9.9503804 1.0285479e-05 0
9.9502587 0.00026513488 0
9.9062744 -0.55127737 0
-10.001766 -0.064992072 0
4.1367734 -5.5985086 0
3.639044 -1.5515987 0
-8.9502453 3.4432818 0
-9.9982126 -0.023375997 0
-11.480813 -4.9507671 0
-1.4275501 -6.8714394 0
-6.3176064 -6.6322964 0
-10.041532 -0.29680929 0
-9.7232738 2.594225 0
-9.9919563 -0.00095942685 0
-9.9493943 -6.3699572e-05 0
-9.9492933 -5.1101932e-07 0
-9.9492897 2.745335e-10 0
-9.9492897 -5.1868806e-11 0
-9.9492897 -3.5658725e-08 0
-9.9492883 -6.5381504e-06 0
-9.951357 -0.011693126 0
-9.9492911 1.3062236e-06 0
-9.9492897 -7.7723702e-08 0
-9.9492897 4.6772907e-11 0
-9.9492897 -2.7980267e-10 0
-9.9492933 5.1058351e-07 0
-9.9493959 6.5872286e-05 0
-9.9925538 0.00070823877 0
-10.032273 0.37560524 0
-10.043371 0.27793103 0
-6.2763215 6.564239 0
-1.419759 6.880362 0
-11.478348 4.9191667 0
6.0693653 0.69512757 0
-8.896781 -3.7738181 0
-9.8101307 -2.3334179 0
-9.8148084 1.9949802 0
9.7370984 -2.1663434 0
9.9465013 -0.0009895507 0
9.9465167 4.6206077e-05 0
9.9465187 -8.262042e-10 0
9.9465187 1.6898108e-11 0
9.9465187 -3.9736192e-13 0
9.9465187 3.3033533e-09 0
9.9465187 -2.5242972e-07 0
9.9465175 0.007802606 0
9.9465186 -2.6582166e-07 0
9.9465187 5.7681953e-09 0
9.9465187 7.6909572e-13 0
9.9465187 -1.5802577e-11 0
9.9465187 1.0053025e-09 0
9.9465169 -4.8476975e-05 0
9.9465225 0.001036742 0
9.9446575 -0.25433571 0
-9.8261689 -1.9269784 0
-9.8117876 2.3454197 0
-8.8552854 3.8765903 0
6.0436956 -0.76772582 0
-10.003714 0.010905025 0
-10.078011 0.17132559 0
-6.3891599 8.6180712 0
-5.9688682 -8.8590319 0
-10.044588 0.088048553 0
-9.9435401 -1.0183301e-05 0
-9.9434871 -2.2912243e-07 0
-9.9434829 -3.1808426e-10 0
-9.9434829 -3.1729596e-12 0
-9.9434829 -3.088782e-13 0
-9.9434829 -9.6137025e-10 0
-9.9434828 -1.1289396e-07 0
-9.9434855 -8.1685199e-05 0
-9.943483 -1.1128986e-07 0
-9.9434829 -9.514561e-10 0
-9.9434829 5.3660242e-13 0
-9.9434829 3.3987519e-12 0
-9.9434829 3.3489119e-10 0
-9.9434871 4.8797907e-07 0
-9.9435478 3.4632026e-05 0
-9.9563238 -0.0008587469 0
-6.2212323 8.6422208 0
-6.3748428 -8.6306616 0
-10.074153 -0.16417865 0
-10.003767 -0.010935432 0
-10.000018 0.0086447557 0
-9.9998355 -0.00023069539 0
5.6253944 -5.3060378 0
5.7412125 7.2089401 0
9.9445088 -0.079097792 0
9.9447391 3.6199297e-05 0
9.9447384 -5.9004472e-08 0
9.9447384 -7.2087852e-12 0
9.9447384 -1.4907113e-15 0
9.9447384 -6.0807564e-14 0
9.9447384 1.5796941e-14 0
9.9447384 -6.9946858e-09 0
9.9447384 3.2365982e-08 0
9.9447384 -7.6909707e-09 0
9.9447384 1.5274928e-13 0
9.9447384 1.2519378e-13 0
9.9447384 -1.7382615e-15 0
9.9447384 1.4523667e-11 0
9.9447384 3.3783614e-09 0
9.9447386 -3.3719429e-05 0
9.9446461 0.0023704943 0
6.0051239 -7.0462907 0
5.5872921 5.2991726 0
-9.9998315 0.0002297594 0
-10.000018 -0.0086446544 0
-9.9999917 0.0086628087 0
-9.9927346 0.017769948 0
-10.048326 -0.1158325 0
-9.9983142 -0.43810622 0
-9.9412927 -0.00034014367 0
-9.9408798 -3.0288303e-07 0
-9.9408785 9.2258502e-09 0
-9.9408785 -2.8650731e-12 0
-9.9408785 1.3051373e-14 0
-9.9408785 -5.3140598e-14 0
-9.9408785 -3.3821222e-14 0
-9.9408785 -2.6123799e-10 0
-9.9408785 6.9650661e-10 0
-9.9408785 -2.5236642e-10 0
-9.9408785 1.6889606e-13 0
-9.9408785 1.0385586e-13 0
-9.9408785 -5.4553776e-15 0
-9.9408785 3.6645055e-12 0
-9.9408785 2.1347295e-10 0
-9.9408805 1.4216666e-06 0
-9.9410266 0.0012118487 0
-9.9994124 0.42699013 0
-10.047955 0.11489299 0
-9.9926296 -0.01798377 0
-9.9999917 -0.0086629802 0
-10.000011 0.0086694199 0
-9.3607125 -1.3843947 0
-10.001068 -0.0012803417 0
9.9511774 0.36287033 0
9.9544664 0.00090873097 0
9.9544643 1.7198341e-07 0
9.9544644 3.1715938e-10 0
9.9544644 -7.7807661e-14 0
9.9544644 5.8131422e-15 0
9.9544644 -5.0458269e-14 0
9.9544644 -8.9334775e-14 0
9.9544644 -1.4790889e-13 0
9.9544644 -1.2583197e-13 0
9.9544644 1.1794965e-13 0
9.9544644 9.2382477e-14 0
9.9544644 9.5983389e-14 0
9.9544644 -5.268309e-15 0
9.9544644 2.6751141e-15 0
9.9544644 -2.485746e-10 0
9.9544642 -4.8011659e-08 0
9.9544662 -0.00094504702 0
9.9513392 -0.35402678 0
-10.001057 0.0012589767 0
-9.3373717 1.4020574 0
-10.000011 -0.0086695491 0
-10.000003 0.0086305194 0
-10.000045 1.6925223e-06 0
-10.000064 8.2823102e-05 0
-9.9579397 -0.0029230876 0
-9.952742 -1.1434151e-05 0
-9.9527377 -5.5119134e-08 0
-9.9527377 -1.148149e-10 0
-9.9527377 -4.8228963e-14 0
-9.9527377 5.7636992e-15 0
-9.9527377 -4.9485433e-15 0
-9.9527377 2.054631e-16 0
-9.9527377 3.4339781e-15 0
-9.9527377 -1.3442443e-15 0
-9.9527377 -2.0160566e-15 0
-9.9527377 2.0647064e-16 0
-9.9527377 5.0674878e-15 0
-9.9527377 -5.1405803e-15 0
-9.9527377 3.9227603e-14 0
-9.9527377 1.1728736e-10 0
-9.9527378 5.6953282e-08 0
-9.952742 1.1646153e-05 0
-9.9577018 0.0028608854 0
-10.000064 -8.3052537e-05 0
-10.000044 -1.5750172e-06 0
-10.000003 -0.008630512 0
-10 0.0086275471 0
-10 -9.6763343e-06 0
-10.000004 1.8207351e-06 0
-10.000019 2.5424887e-06 0
-10.000023 -3.5257677e-08 0
-10.000023 -9.3007493e-11 0
-10.000023 -3.115162e-14 0
-10.000023 -2.468276e-15 0
-10.000023 5.7538618e-15 0
-10.000023 -4.9528605e-15 0
-10.000023 -8.3644696e-17 0
-10.000023 4.796638e-15 0
-10.000023 -4.9250064e-15 0
-10.000023 -2.0594346e-16 0
-10.000023 9.9651611e-17 0
-10.000023 5.1210914e-15 0
-10.000023 -5.1280122e-15 0
-10.000023 -7.3749863e-18 0
-10.000023 2.3248919e-14 0
-10.000023 9.6789038e-11 0
-10.000023 3.4429445e-08 0
-10.000019 -2.5397657e-06 0
-10.000004 -1.8217608e-06 0
-10 9.676686e-06 0
-10 -0.0086275471 0
-10 0.0086275471 0
-10 -9.7089782e-06 0
-10 -5.6927929e-07 0
-10 4.1803016e-10 0
-10 6.1309667e-12 0
-10 7.7079044e-15 0
-10 -1.336224e-17 0
-10 -2.4481241e-15 0
-10 5.7530663e-15 0
-10 -4.9523744e-15 0
-10 -8.3826903e-17 0
-10 4.796154e-15 0
-10 -4.9255229e-15 0
-10 -2.0616081e-16 0
-10 9.9803116e-17 0
-10 5.1210567e-15 0
-10 -5.1281256e-15 0
-10 -1.7708759e-17 0
-10 1.9593392e-16 0
-10 -5.0099987e-15 0
-10 -6.130956e-12 0
-10 -4.1800955e-10 0
-10 5.6927928e-07 0
-10 9.7089782e-06 0
-10 -0.0086275471 0
-9.9999994 0.0086275563 0
-9.9999994 -9.7095654e-06 0
-9.9999994 -5.6930888e-07 0
-9.9999994 4.185119e-10 0
-9.9999994 7.5055829e-12 0
-9.9999994 -3.3218028e-15 0
-9.9999994 -4.219853e-17 0
-9.9999994 -2.4470112e-15 0
-9.9999994 5.75314e-15 0
-9.9999994 -4.9519616e-15 0
-9.9999994 -8.2945524e-17 0
-9.9999994 4.797386e-15 0
-9.9999994 -4.9232455e-15 0
-9.9999994 -2.0774977e-16 0
-9.9999994 9.8848689e-17 0
-9.9999994 5.1200786e-15 0
-9.9999994 -5.1280447e-15 0
-9.9999994 -1.770842e-17 0
-9.9999994 2.2561082e-16 0
-9.9999994 5.7554184e-15 0
-9.9999994 -7.504852e-12 0
-9.9999994 -4.1851496e-10 0
-9.9999994 5.6930888e-07 0
-9.9999994 9.7095654e-06 0
-9.9999994 -0.0086275563 0
-9.9999957 0.0086293923 0
-9.9999905 -9.5020667e-06 0
-9.9999903 -5.7035453e-07 0
-9.9999903 4.1609239e-10 0
-9.9999903 7.520277e-12 0
-9.9999903 -3.3184982e-15 0
-9.9999903 -4.2490751e-17 0
-9.9999903 -2.4488767e-15 0
-9.9999903 5.7542188e-15 0
-9.9999903 -4.9532896e-15 0
-9.9999903 -8.3992022e-17 0
-9.9999903 4.796655e-15 0
-9.9999903 -4.9269788e-15 0
-9.9999903 -2.0559438e-16 0
-9.9999903 9.9991869e-17 0
-9.9999903 5.1221474e-15 0
-9.9999903 -5.1291573e-15 0
-9.9999903 -1.7708902e-17 0
-9.9999903 2.2593886e-16 0
-9.9999903 5.7344789e-15 0
-9.9999903 -7.5194436e-12 0
-9.9999903 -4.1609508e-10 0
-9.9999903 5.7035453e-07 0
-9.9999905 9.5020667e-06 0
-9.9999957 -0.0086293923 0
-10.008152 0.0081523163 0
-10.008629 -4.2999619e-06 0
-10.008628 -5.5934931e-07 0
-10.008628 2.8880871e-10 0
-10.008628 7.44931e-12 0
-10.008628 -2.3054623e-15 0
-10.008628 -4.2421357e-17 0
-10.008628 -2.390913e-15 0
-10.008628 5.607819e-15 0
-10.008628 -4.8289135e-15 0
-10.008628 -8.5594354e-17 0
-10.008628 4.6699432e-15 0
-10.008628 -4.8103489e-15 0
-10.008628 -1.9542805e-16 0
-10.008628 1.0214666e-16 0
-10.008628 4.9957357e-15 0
-10.008628 -4.9998896e-15 0
-10.008628 -1.7709216e-17 0
-10.008628 2.2168015e-16 0
-10.008628 4.7006948e-15 0
-10.008628 -7.447465e-12 0
-10.008628 -2.8881458e-10 0
-10.008628 5.5934931e-07 0
-10.008629 4.2999619e-06 0
-10.008152 -0.0081523163 0
-3.5402734 7.5292028 0
-5.743521 -5.2475498 0
-7.4530436 -2.0072017 0
-0.89831209 11.33871 0
-6.3843206 -10.540243 0
10.750295 -5.1510181 0
-9.9802643 -0.1573255 0
-9.9885562 -0.48180063 0
-9.9655856 -0.00019455756 0
-9.9604481 5.2263164e-05 0
-9.9722678 -0.46766605 0
-8.7137991 -4.9218724 0
-8.9542437 -4.4626588 0
-8.6542282 5.0250389 0
-9.9604053 -0.0010372619 0
-9.9604505 5.1849197e-06 0
-9.9663774 0.00046255584 0
1.7588315 -3.1257356 0
-12.858961 -10.369202 0
2.1305976 -9.1095228 0
-7.2554662 -5.029132 0
-7.8626091 6.6462784 0
-14.479419 -6.8844187 0
-6.4238049 9.3319829 0
-3.6189026 9.9673787 0
2.6343275 -13.726701 0
-6.0814902 4.5776329 0
-5.4283821 -9.7962828 0
0.80904202 -8.0857003 0
-5.3108699 -5.9068166 0
-0.34219314 3.0418366 0
-7.6757183 3.1465521 0
4.05866 7.9856871 0
9.9550723 0.035317023 0
9.9627452 -4.9812756e-06 0
9.9753424 0.45427553 0
9.0839597 4.2920452 0
9.3453793 3.6696457 0
9.066125 -4.3222291 0
9.9628084 0.00045959837 0
9.9627372 -3.8382762e-05 0
9.9536652 -0.038640396 0
3.8366607 -8.019187 0
9.8386904 2.0930877 0
3.074477 -0.52184966 0
10.335842 5.7198474 0
7.7796903 -6.4289373 0
-5.4414616 9.7794065 0
-6.0813006 -4.5778196 0
2.6343276 13.726701 0
-0.10330953 -9.4546949 0
-3.6847862 9.7506818 0
0.098896465 5.3603437 0
9.3653538 8.5874384 0
-8.5265674 4.9684475 0
-1.9950032 10.16401 0
3.989042 7.6692458 0
-4.3654115 -9.9362632 0
-10.065273 -0.030729089 0
-9.9597691 -0.00018606458 0
-9.9638991 -0.44240736 0
-9.1059956 -4.0684575 0
-9.3557778 -3.4312981 0
-9.0676989 4.1533518 0
-9.959528 -0.00074645147 0
-9.9598542 0.00042863864 0
-10.06573 0.018169292 0
-4.1032602 10.114063 0
1.3548912 -7.3424201 0
-4.7174141 -11.373636 0
-10.007812 0.26651916 0
-5.5461835 4.4172006 0
0.3262756 5.4750105 0
-8.1297537 -6.3303809 0
-0.11110844 9.4489912 0
0.49786761 -3.6822623 0
-6.8388907 -10.619295 0