# vtk DataFile Version 4.0
hesp visualization file
ASCII
DATASET UNSTRUCTURED_GRID
POINTS 1250 double
36.140815 6.2699129 4
32.146284 -2.0478585 4
35.179655 6.1982407 4
28.664028 0.98853244 4
29.991077 4.5699636 4
29.983322 8.1537541 4
29.849326 6.8538424 4
33.853954 7.4745735 4
29.028781 10.592269 4
32.661836 11.974973 4
28.240706 12.711134 4
33.073043 14.714326 4
31.684447 14.995248 4
33.731647 16.574444 4
29.838664 15.401223 4
32.281134 17.913758 4
28.148101 17.695943 4
30.794584 17.830286 4
31.558605 21.180209 4
30.807812 19.865839 4
31.219527 21.46274 4
35.276849 28.215405 4
35.954774 24.458 4
33.018827 30.137443 4
30.251373 28.631161 4
30.969321 -12.213054 4
31.051529 2.0787497 4
32.753709 -3.7663437 4
35.202106 5.5816837 4
36.306712 3.7821561 4
28.560277 7.8892228 4
30.558726 4.6979794 4
30.676786 12.584457 4
31.512055 9.2386432 4
30.337685 12.77934 4
33.22447 12.48035 4
28.543472 11.879045 4
30.86108 16.387231 4
29.771901 16.869703 4
29.304165 14.037396 4
33.339305 17.550655 4
32.324038 17.423406 4
31.365991 19.497062 4
29.494819 19.305754 4
29.918332 21.023258 4
30.716318 24.058738 4
33.084918 23.773869 4
32.764368 32.945763 4
32.730857 29.224953 4
30.969321 41.397067 4
31.866197 -3.2760197 4
34.859912 4.455519 4
29.750191 7.5310493 4
33.17701 5.7767472 4
35.401892 5.2654496 4
29.037134 10.195255 4
30.998865 13.126501 4
32.880449 10.767803 4
31.534151 8.6273173 4
31.080828 10.569115 4
28.846283 12.322619 4
31.98462 13.378098 4
32.166739 14.4718 4
31.388556 16.779975 4
32.696158 18.108043 4
32.010073 17.440885 4
30.33481 18.602764 4
30.325681 20.593305 4
34.609299 19.156993 4
31.658564 17.970132 4
35.148767 23.813581 4
35.604701 25.600765 4
33.27784 27.000121 4
32.170936 25.064956 4
31.87046 32.448717 4
31.453584 -3.1419585 4
33.11111 -7.2331662 4
32.46343 5.5204176 4
32.231043 4.2027459 4
28.016351 4.0663437 4
30.323848 10.613329 4
33.708118 6.686928 4
31.378108 11.992175 4
31.605493 12.631524 4
33.31539 10.173317 4
31.81564 12.085701 4
28.444592 12.8776 4
28.539606 13.216629 4
30.589558 16.584471 4
30.190684 16.362862 4
32.79593 19.768293 4
35.139673 17.386559 4
31.153623 20.488224 4
32.491898 23.152489 4
30.007399 25.293146 4
33.655511 24.861081 4
36.213222 24.885179 4
30.226475 26.384433 4
33.111115 36.417181 4
31.451451 32.327379 4
32.722321 7.6061035 4
32.867211 3.461004 4
34.152665 -0.81847957 4
37.062862 2.1676025 4
30.976085 9.5725796 4
30.285771 2.3693827 4
30.040845 9.1436235 4
34.405759 13.062473 4
33.082122 11.69446 4
31.850122 14.686258 4
33.224161 15.611773 4
36.191976 17.242988 4
34.052158 16.170887 4
30.119716 16.822387 4
30.442525 17.08511 4
33.057596 17.723938 4
31.328588 19.146479 4
30.964814 21.177991 4
31.398255 23.866751 4
30.069392 18.434137 4
29.165453 17.944001 4
31.699971 20.252257 4
33.57099 29.51968 4
34.714968 23.642359 4
36.566719 22.421255 4
30.404058 -3.8262372 4
31.773349 -6.2157879 4
34.059934 1.6635841 4
29.569883 11.628055 4
31.078798 8.4845987 4
31.241624 4.4023112 4
35.815999 8.2403612 4
34.820309 8.5490998 4
32.132709 7.511203 4
34.856027 8.1897766 4
32.237819 12.532402 4
33.781958 10.88584 4
34.051424 11.30327 4
34.644519 15.807951 4
35.719019 18.181329 4
32.58609 16.923786 4
32.099698 18.940444 4
31.343314 18.439912 4
30.540596 21.133146 4
30.246053 23.734957 4
33.898511 23.264993 4
30.659182 24.94959 4
34.358115 21.410863 4
31.773763 35.399917 4
30.404049 33.01026 4
30.944881 0.6589184 4
36.900443 1.7578304 4
28.665242 -0.3712724 4
34.080769 6.8962507 4
28.785529 2.7601157 4
32.96996 7.5818044 4
35.837862 7.7895466 4
32.132797 9.0296528 4
32.760245 11.272676 4
33.666746 11.436811 4
33.153992 13.58629 4
33.657407 15.806871 4
35.589365 16.837581 4
33.824687 11.682959 4
33.323081 17.05476 4
34.354322 17.467032 4
32.421954 20.615711 4
35.841781 20.197774 4
33.182966 21.591399 4
30.808123 21.588181 4
29.480977 22.770056 4
35.009116 23.142349 4
28.427703 29.293078 4
37.034808 24.840256 4
32.11798 29.568658 4
39.583327 -8.1139419 4
32.653614 2.4283378 4
35.429838 1.6788596 4
32.593 5.7774326 4
35.61062 6.12091 4
32.293517 6.5583079 4
32.415823 10.06165 4
36.463889 11.617014 4
34.66998 10.827006 4
35.040305 9.9551568 4
34.456797 11.28834 4
33.25839 14.339511 4
34.473509 14.087036 4
35.110069 16.868785 4
35.753195 12.850216 4
34.703942 16.537631 4
33.750501 20.372663 4
39.755326 19.700768 4
33.435759 19.540984 4
31.908386 20.78943 4
36.899343 27.555238 4
32.926932 24.613966 4
35.26905 27.647624 4
32.124095 26.354273 4
39.583327 37.297955 4
30.969194 1.4148361 4
29.52321 1.240402 4
35.742361 -1.3451237 4
33.720838 8.2053317 4
37.506732 5.4857379 4
35.317977 4.5463186 4
33.700829 7.1841898 4
34.020337 12.124351 4
34.109133 13.302557 4
34.653511 12.854624 4
35.309256 13.534092 4
34.52754 15.026948 4
33.859771 17.181298 4
33.537148 14.680923 4
36.019811 19.010159 4
35.077801 15.830141 4
33.650002 18.35844 4
36.623162 18.390849 4
32.16742 19.463075 4
35.196286 21.75025 4
35.315797 20.944955 4
39.077178 22.854311 4
36.781556 31.102273 4
30.319174 27.292014 4
30.834157 26.896283 4
32.865693 0.22699022 4
33.178315 -4.7010797 4
34.090719 1.3407773 4
35.794947 4.1272748 4
35.299524 6.9732526 4
35.489019 9.4128785 4
36.088934 9.5462044 4
33.987164 10.484924 4
38.202402 10.858774 4
36.325638 10.672399 4
36.949998 12.034666 4
36.969024 11.663352 4
32.766714 14.033653 4
36.472088 14.590652 4
37.641039 15.918998 4
37.074458 17.608642 4
34.58861 17.068811 4
33.396999 18.286201 4
36.626643 20.791812 4
37.128247 22.145198 4
34.874764 22.545063 4
34.901313 23.445495 4
33.945548 27.319926 4
33.178317 33.885089 4
32.512912 28.636285 4
32.789866 -0.7508716 4
35.859463 3.3211285 4
38.283154 5.5927439 4
32.561567 0.83896847 4
40.99867 5.0830003 4
37.230264 6.3356773 4
36.301253 6.9405662 4
35.624677 10.777831 4
37.109092 8.0295944 4
36.48143 11.175983 4
35.689071 12.370185 4
35.923193 15.36397 4
39.136766 12.63861 4
35.726961 17.377475 4
37.053169 16.895151 4
36.234451 19.731119 4
36.327563 19.982963 4
34.275413 19.658184 4
35.032298 20.611761 4
36.533329 21.112329 4
37.16302 26.5253 4
32.901058 28.880241 4
33.789993 24.595922 4
35.930915 26.448085 4
31.01267 30.379202 4
30.578731 -2.090883 4
32.982758 -1.1814083 4
38.837364 8.8685517 4
35.557285 3.0462395 4
33.824218 5.8859405 4
36.390033 5.6536087 4
35.572073 7.9250046 4
34.259108 9.0000703 4
35.689487 10.247194 4
37.017604 9.7238534 4
37.256875 12.733065 4
37.161521 11.002127 4
35.547116 14.458218 4
37.862395 15.197922 4
37.75353 17.72189 4
35.796748 17.688388 4
35.268363 18.75155 4
37.587867 19.46277 4
35.290783 20.49074 4
41.884297 23.299341 4
33.694738 19.574647 4
35.502822 26.115086 4
39.470173 18.007114 4
33.073678 30.408331 4
30.574559 31.297817 4
30.977806 -0.3265316 4
32.680979 -1.3968791 4
39.897929 2.9124955 4
38.630686 6.9880145 4
37.215059 5.3326108 4
39.132303 7.7226606 4
38.473819 11.081622 4
35.822919 9.8120443 4
37.741455 10.10963 4
39.175863 11.73436 4
35.838605 13.405326 4
35.720143 12.599406 4
34.735699 15.238522 4
35.4217 15.309713 4
41.696629 14.768848 4
36.81153 19.014897 4
36.052566 19.306687 4
36.454035 19.410349 4
37.350223 19.683666 4
39.830066 23.29318 4
37.218158 23.121486 4
37.953936 24.549816 4
39.68775 26.245421 4
32.828442 30.848881 4
30.780078 27.835882 4
31.231285 -1.4077725 4
35.210136 2.0116854 4
35.00346 -0.098601199 4
35.720525 4.9955644 4
38.215678 3.244795 4
36.751228 8.7023625 4
37.644427 8.9566575 4
37.455189 7.628389 4
37.62034 9.6506791 4
38.200285 11.150291 4
39.735091 11.463944 4
38.030825 12.629128 4
39.624784 14.461139 4
37.391891 16.918925 4
38.11239 16.418176 4
37.418878 18.011776 4
38.178118 18.465436 4
38.36338 19.903986 4
35.247088 19.770624 4
38.227352 20.843716 4
38.267996 24.801786 4
35.350353 26.8244 4
35.04955 29.156066 4
36.779581 27.760003 4
32.777614 30.381054 4
36.056327 -2.0103442 4
33.606664 0.56115001 4
35.954692 2.6924588 4
37.88271 5.1129027 4
38.406978 2.9102811 4
37.316115 9.3614282 4
36.96903 7.3243179 4
39.881894 9.1317303 4
39.266962 11.528475 4
38.734129 11.500547 4
37.611834 12.370353 4
39.273247 15.228859 4
41.552713 14.360742 4
40.68826 14.003275 4
38.583529 17.176074 4
38.552679 17.961757 4
39.198743 17.744622 4
38.702026 19.906958 4
36.779917 21.333948 4
38.786826 21.048291 4
38.25815 23.713936 4
35.65247 24.265663 4
34.910472 26.989807 4
33.624356 28.692443 4
36.046001 30.546014 4
37.172187 -1.5162957 4
37.374469 3.8142079 4
38.353705 6.7614842 4
37.421219 1.2999721 4
38.426517 8.076282 4
37.292319 5.9193971 4
39.130969 8.3952719 4
39.447889 8.9110946 4
40.858135 9.9495783 4
40.464325 10.818151 4
39.30099 12.368757 4
38.457241 11.871235 4
37.020307 14.165407 4
37.906057 15.968593 4
39.890236 16.020226 4
39.720492 17.941931 4
40.437985 19.679466 4
39.982617 20.434593 4
39.155431 22.109834 4
38.00245 21.639043 4
38.167331 24.191631 4
37.630254 25.104721 4
39.678042 24.910486 4
36.572681 25.089126 4
37.082373 30.876141 4
36.141028 -0.069160511 4
37.63842 4.1831326 4
40.502371 1.8827253 4
43.140083 6.7242672 4
38.314646 3.768794 4
38.977249 7.2050843 4
40.160748 7.8737008 4
39.994453 9.4913206 4
39.874704 10.085425 4
40.792652 11.246033 4
39.810082 12.839494 4
38.959171 13.666568 4
38.044955 14.863229 4
40.612273 18.326812 4
41.08431 17.084006 4
40.789712 17.947513 4
39.872394 19.094738 4
40.868438 20.170512 4
40.448991 20.656714 4
37.095274 21.577713 4
39.910963 21.044315 4
43.206004 24.254943 4
41.582808 28.364813 4
37.730763 25.941712 4
35.832427 29.459746 4
36.975973 0.38986231 4
35.682047 1.0404263 4
37.774943 2.6770546 4
37.303012 4.7902158 4
38.266693 7.7065631 4
40.361125 7.1984652 4
40.973438 6.9514328 4
41.928539 7.8934894 4
41.000423 10.1338 4
41.756046 11.208692 4
42.312164 11.448653 4
40.378865 13.026432 4
41.610442 13.352644 4
40.167041 16.366919 4
41.00538 16.727439 4
41.756328 17.968674 4
40.996753 19.053983 4
41.05914 19.872387 4
40.424939 21.368587 4
39.157561 22.401092 4
39.804643 21.940437 4
37.93442 25.642882 4
37.252659 27.371418 4
36.392122 28.395698 4
36.41746 28.088901 4
37.328676 1.0599443 4
38.915608 -1.9409565 4
37.525755 3.4161562 4
[...]
POINT_DATA 1250
SCALARS m double
LOOKUP_TABLE default
1
1
1
1
1
1
1
1
1
1
1
1
1
1
1
1
1
1
1
1
1
1
1
1
1
1
1
1
1
1
1
1
1
1
1
1
1
1
1
1
1
1
1
1
1
1
1
1
1
1
1
1
1
1
1
1
1
1
1
1
1
1
1
1
1
1
1
1
1
1
1
1
1
1
1
1
1
1
1
1
1
1
1
1
1
1
1
1
1
1
1
1
1
1
1
1
1
1
1
1
1
1
1
1
1
1
1
1
1
1
1
1
1
1
1
1
1
1
1
1
1
1
1
1
1
1
1
1
1
1
1
1
1
1
1
1
1
1
1
1
1
1
1
1
1
1
1
1
1
1
1
1
1
1
1
1
1
1
1
1
1
1
1
1
1
1
1
1
1
1
1
1
1
1
1
1
1
1
1
1
1
1
1
1
1
1
1
1
1
1
1
1
1
1
1
1
1
1
1
1
1
1
1
1
1
1
1
1
1
1
1
1
1
1
1
1
1
1
1
1
1
1
1
1
1
1
1
1
1
1
1
1
1
1
1
1
1
1
1
1
1
1
1
1
1
1
1
1
1
1
1
1
1
1
1
1
1
1
1
1
1
1
1
1
1
1
1
1
1
1
1
1
1
1
1
1
1
1
1
1
1
1
1
1
1
1
1
1
1
1
1
1
1
1
1
1
1
1
1
1
1
1
1
1
1
1
1
1
1
1
1
1
1
1
1
1
1
1
1
1
1
1
1
1
1
1
1
1
1
1
1
1
1
1
1
1
1
1
1
1
1
1
1
1
1
1
1
1
1
1
1
1
1
1
1
1
1
1
1
1
1
1
1
1
1
1
1
1
1
1
1
1
1
1
1
1
1
1
1
1
1
1
1
1
1
1
1
1
1
1
1
1
1
1
1
1
1
1
1
1
1
1
1
1
1
1
1
1
1
1
1
1
1
1
1
1
1
1
1
1
1
1
1
1
1
1
1
1
1
1
1
1
1
1
1
1
1
1
1
1
1
1
1
1
1
1
1
1
1
1
1
1
1
1
1
1
1
1
1
1
1
1
1
1
1
1
1
1
1
1
1
1
1
1
1
1
1
1
1
1
1
1
1
1
1
1
1
1
1
1
1
1
1
1
1
1
1
1
1
1
1
1
1
1
1
1
1
1
1
1
1
1
1
1
1
1
1
1
1
1
1
1
1
1
1
1
1
1
1
1
1
1
1
1
1
1
1
1
1
1
1
1
1
1
1
1
1
1
1
1
1
1
1
1
1
1
1
1
1
1
1
1
1
1
1
1
1
1
1
1
1
1
1
1
1
1
1
1
1
1
1
1
1
1
1
1
1
1
1
1
1
1
1
1
1
1
1
1
1
1
1
1
1
1
1
1
1
1
1
1
1
1
1
1
1
1
1
1
1
1
1
1
1
1
1
1
1
1
1
1
1
1
1
1
1
1
1
1
1
1
1
1
1
1
1
1
1
1
1
1
1
1
1
1
1
1
1
1
1
1
1
1
1
1
1
1
1
1
1
1
1
1
1
1
1
1
1
1
1
1
1
1
1
1
1
1
1
1
1
1
1
1
1
1
1
1
1
1
1
1
1
1
1
1
1
1
1
1
1
1
1
1
1
1
1
1
1
1
1
1
1
1
1
1
1
1
1
1
1
1
1
1
1
1
1
1
1
1
1
1
1
1
1
1
1
1
1
1
1
1
1
1
1
1
1
1
1
1
1
1
1
1
1
1
1
1
1
1
1
1
1
1
1
1
1
1
1
1
1
1
1
1
1
1
1
1
1
1
1
1
1
1
1
1
1
1
1
1
1
1
1
1
1
1
1
1
1
1
1
1
1
1
1
1
1
1
1
1
1
1
1
1
1
1
1
1
1
1
1
1
1
1
1
1
1
1
1
1
1
1
1
1
1
1
1
1
1
1
1
1
1
1
1
1
1
1
1
1
1
1
1
1
1
1
1
1
1
1
1
1
1
1
1
1
1
1
1
1
1
1
1
1
1
1
1
1
1
1
1
1
1
1
1
1
1
1
1
1
1
1
1
1
1
1
1
1
1
1
1
1
1
1
1
1
1
1
1
1
1
1
1
1
1
1
1
1
1
1
1
1
1
1
1
1
1
1
1
1
1
1
1
1
1
1
1
1
1
1
1
1
1
1
1
1
1
1
1
1
1
1
1
1
1
1
1
1
1
1
1
1
1
1
1
1
1
1
1
1
1
1
1
1
1
1
1
1
1
1
1
1
1
1
1
1
1
1
1
1
1
1
1
1
1
1
1
1
1
1
1
1
1
1
1
1
1
1
1
1
1
1
1
1
1
1
1
1
1
1
1
1
1
1
1
1
1
1
1
1
1
1
1
1
1
1
1
1
1
1
1
1
1
1
1
1
1
1
1
1
1
1
1
1
1
1
1
1
1
1
1
1
1
1
1
1
1
1
1
1
1
1
1
1
1
1
1
1
1
1
1
1
1
1
1
1
1
1
1
1
1
1
1
1
1
1
1
1
1
1
1
1
1
1
1
1
1
1
1
1
1
1
1
1
1
1
1
1
1
1
1
1
1
1
1
1
1
1
1
1
1
1
1
1
1
1
1
1
1
1
1
1
1
1
1
1
1
1
1
1
1
1
1
1
1
1
1
1
1
1
1
1
1
1
1
1
1
1
1
1
1
1
1
1
1
1
1
1
1
1
1
1
1
1
1
1
1
1
1
1
1
1
1
1
1
1
1
1
1
1
1
1
1
1
1
1
1
1
1
1
1
1
1
1
1
1
1
1
1
1
1
1
1
1
1
1
1
1
1
1
1
1
1
1
1
1
1
1
1
1
1
1
VECTORS v double
7.8038514 -4.2840188 0
4.5432769 -10.049332 0
-4.6069517 2.8418679 0
-7.6888424 -7.0724157 0
3.559262 -0.60082214 0
-2.6527165 1.8387061 0
-6.1317384 -0.93786931 0
0.49144848 -13.300767 0
-0.90875048 1.7572175 0
2.5015417 11.291875 0
3.0942085 5.8332452 0
2.5279684 3.6887559 0
3.647833 -4.9319348 0
-4.7534226 16.06868 0
-3.1179742 -5.8048221 0
1.803367 3.9441065 0
-14.340905 2.0627007 0
8.8277879 -5.9584561 0
0.689702 5.1883434 0
-9.6701195 1.7348011 0
-1.8332513 0.78033035 0
7.7975865 8.3132205 0
-4.7682283 9.5855925 0
9.5853051 -0.2219265 0
-10.917777 4.7184849 0
2.6309731 -13.726701 0
-8.3831809 0.30529028 0
5.3684888 -9.586574 0
5.6433171 -0.56062142 0
8.830468 2.5408023 0
1.2052364 1.9301707 0
0.46074078 -10.403462 0
8.3746008 11.527147 0
-0.7702566 2.2557005 0
-10.627269 12.58756 0
2.4500604 5.9763449 0
-4.1646603 -4.5821682 0
-6.2539158 16.879022 0
-10.178014 4.3122902 0
-6.7846428 -13.90108 0
4.0849503 -11.138269 0
5.2198022 -5.1097419 0
4.9409361 2.3458072 0
-1.8735656 -2.037538 0
-3.9884288 -0.73745044 0
-4.6666241 -3.5526447 0
8.0776073 -1.9564309 0
5.3898434 9.5820473 0
-4.500433 10.697619 0
2.6309732 13.726701 0
-0.1935127 -9.5575079 0
-8.6160737 -4.7075753 0
4.298553 5.4179129 0
2.4723083 0.78709159 0
8.135871 8.9017423 0
6.5791305 5.183759 0
-3.6754741 9.6063671 0
2.4670109 -2.6288536 0
-4.4072986 -12.18735 0
-8.0803729 -2.9536151 0
6.2944176 -8.4862033 0
-10.61624 -1.4773159 0
-11.375956 -8.0143498 0
-15.312456 -4.8297421 0
7.4588939 -1.3219106 0
-4.0054438 2.6141098 0
0.99261905 14.889035 0
1.7278388 -12.275666 0
-13.425486 -3.4139203 0
-3.58919 11.285439 0
9.8561078 0.14930666 0
-2.3878012 7.632509 0
9.1964487 11.623834 0
-10.539359 -2.2769554 0
-0.1615624 9.5250951 0
-0.066336846 -3.526678 0
6.8350623 -10.617907 0
5.437944 7.7227449 0
-10.396301 2.3199094 0
-1.5573814 -10.638498 0
-8.8653358 0.68321452 0
-2.8512712 -2.8883287 0
-1.0890528 9.2154943 0
-10.964282 12.32996 0
6.9721042 -1.8160472 0
0.92583349 -6.349518 0
-9.8330624 -18.394696 0
-0.24084525 -0.75131354 0
4.6258967 1.9086112 0
3.5722904 -4.8357469 0
-16.514024 7.857858 0
3.8692193 -4.7960621 0
-2.1971277 2.9228085 0
0.7410839 9.9961221 0
-5.6538199 1.1574993 0
1.9860876 8.2243429 0
1.7553539 -8.3687062 0
-3.1957076 15.339792 0
6.8350687 10.617912 0
-0.099068165 3.5331118 0
-1.522421 10.433567 0
3.8956829 -2.5246971 0
9.987119 -6.0481842 0
0.87831585 -9.510288 0
12.360202 1.2976248 0
-5.7014893 -10.534745 0
-10.796951 12.647134 0
12.852387 7.452168 0
9.8657074 4.8783143 0
8.1278741 -3.625372 0
-4.1191101 5.4174159 0
12.20179 11.119324 0
4.4736171 -9.5964473 0
7.0556856 -6.9127712 0
-11.03749 -7.8262785 0
1.4723122 5.6916496 0
-11.017602 1.5300887 0
-6.9993057 -4.4407401 0
2.0322387 3.4199966 0
1.4550093 -11.377213 0
-9.1653372 -14.423726 0
-8.7602369 -6.936964 0
7.9767662 4.2629029 0
-2.6117302 8.9630946 0
5.7284903 -6.579502 0
-1.11448 -6.3271839 0
-1.9960103 -10.927614 0
-8.5017571 -4.5492588 0
-3.7211726 7.6593746 0
0.79394658 3.5355803 0
-0.50267846 -9.2124112 0
-1.5696016 -4.6910568 0
10.193771 -4.6480284 0
-2.2528451 -12.594369 0
3.0208485 -0.22590879 0
-12.434353 -1.0065867 0
-9.1343799 7.7644539 0
-0.23195141 -8.9873536 0
1.2801692 9.3313749 0
1.961647 3.8634745 0
5.0053147 -1.5357611 0
3.483375 -0.074135975 0
-10.05291 -1.7901695 0
2.1628776 1.4785056 0
-3.7918615 15.545545 0
3.1164175 5.7140407 0
1.2195358 5.221658 0
-2.5237752 1.075812 0
-1.9954218 10.927783 0
-1.1145041 6.3272144 0
9.8706175 -3.0419693 0
-5.839768 -8.376152 0
-6.407284 -6.8756853 0
-13.366661 -0.57877349 0
-7.3696839 -8.297227 0
2.7152978 6.6182037 0
6.1457852 10.823551 0
-2.8952756 -9.0056458 0
-11.647897 -1.4425278 0
11.44096 0.84707101 0
-6.9835969 2.5434433 0
10.316166 20.873982 0
10.159597 8.7458664 0
-1.4569832 -5.0559659 0
3.6307763 -2.9197589 0
11.130792 -1.3157692 0
-11.105892 -1.1653459 0
-2.4903848 15.795837 0
-1.7508147 9.2379753 0
-6.9212786 4.1358874 0
3.0033508 -1.2898737 0
2.7752502 -3.8947282 0
-6.8992737 6.1504622 0
1.6543074 -3.1549334 0
6.6477565 10.835747 0
4.8370531 -9.9977527 0
-2.5818039 0.23453064 0
-7.3246903 3.6039591 0
-7.4365947 -7.6438909 0
4.3255849 -0.33363465 0
-4.2048999 -5.9836934 0
5.3609354 0.9244834 0
1.3630345 9.9121061 0
-0.75522889 0.99189676 0
10.56162 -4.4992534 0
-2.3269799 0.48543955 0
-1.7627033 6.238067 0
-9.0340763 5.4315325 0
2.5746643 4.8822321 0
0.45854549 -1.0905383 0
3.5812534 -0.74311491 0
2.0408418 0.92914314 0
11.374083 1.9500248 0
5.0507366 -5.9871477 0
-9.0705141 -7.0539535 0
8.77317 10.750729 0
-0.83974541 7.8984063 0
-8.5800346 -2.3360164 0
-5.1101125 -2.0728179 0
4.8370532 9.9977527 0
-8.5316424 0.33630371 0
-9.9703473 -1.7497515 0
-5.5740795 -7.3767152 0
-9.9515713 7.8665077 0
2.304722 3.8425561 0
2.0467044 -5.1570796 0
-1.8550655 -12.246221 0
-0.052441583 13.955596 0
-5.5403408 -0.34456359 0
-1.4364749 1.0708472 0
16.570147 5.7421146 0
-7.4781041 2.1885773 0
6.1140786 8.8456454 0
-2.7415248 8.0180295 0
3.444561 11.19101 0
7.4114321 -9.1500097 0
0.29930686 3.5525187 0
5.712408 -1.3834159 0
18.314909 -11.95612 0
1.361332 0.06043128 0
8.8153639 -3.6867737 0
8.2146443 -4.3986055 0
-1.3498206 12.476592 0
3.7648267 -7.8974418 0
-4.3255786 2.9143485 0
3.2764436 -3.5647981 0
-3.9335219 -8.2573246 0
-8.1388462 -10.451031 0
8.5746685 -5.6264469 0
-4.1650312 1.8660003 0
-1.230054 -8.3708307 0
3.5479064 10.435283 0
-10.553382 -5.5215334 0
5.7448376 -2.2874011 0
7.883773 -4.5518479 0
-1.8686454 2.263516 0
6.8229687 -0.62004987 0
-4.3960359 4.8805134 0
9.1882349 -3.4960462 0
1.5570804 -8.5928049 0
-7.4700995 4.589862 0
-2.8787719 -3.6556464 0
-11.581296 2.9317406 0
0.011229223 4.8859294 0
-2.8752933 -4.7845705 0
-3.0123304 -5.8381787 0
7.9481267 -7.9298816 0
-9.4028291 2.6831086 0
-3.9335187 8.257314 0
1.2248567 2.0282923 0
11.444637 -1.9073703 0
-3.5974895 -6.7336847 0
3.9742694 -4.3071012 0
-7.3226273 -7.2915403 0
2.4685835 -9.544945 0
7.8056712 -0.087800319 0
1.1784145 -4.628832 0
-3.6921857 -12.744751 0
-2.3281168 -15.680313 0
-6.1256426 3.9272839 0
-5.9400456 -7.7447442 0
-10.174921 1.4355089 0
-1.6635923 5.7869825 0
-6.3320778 -0.7737138 0
-9.6729381 -4.5476347 0
-2.7002748 9.5911849 0
14.566098 11.463189 0
-8.4069892 1.7520509 0
-4.1351914 1.4156382 0
-11.857195 -9.0561016 0
-0.5504495 7.2032294 0
-4.824727 6.194943 0
-1.293181 -5.2909775 0
0.60212141 -1.770311 0
-11.453127 4.6629766 0
-7.9354677 -6.9967728 0
-7.3392047 -4.4832342 0
-9.5955777 10.499116 0
5.5838422 -3.2844281 0
-0.66249163 -19.765155 0
-13.031313 -8.0394515 0
-6.6938766 -3.2929866 0
-9.8739374 0.73635366 0
0.0057059728 8.1087723 0
-2.4281309 -9.3912848 0
15.380873 11.163027 0
-10.987769 -5.1681585 0
-11.190251 -0.85196736 0
9.3980232 -1.8202782 0
5.1405454 1.5998603 0
-9.0369032 6.9951214 0
-7.0683738 -7.8363147 0
-4.2173751 2.3032225 0
-7.2979797 -4.6788075 0
10.019463 6.1766904 0
-10.774138 -7.4004291 0
6.1446861 3.1904765 0
-13.491635 -11.062053 0
-5.8663921 7.1127267 0
-7.9831551 7.1878911 0
-9.0179521 -9.0481786 0
-8.7318033 -9.2567581 0
4.2609978 -3.398419 0
-1.2521415 1.7069043 0
0.59622616 -2.7426299 0
-0.31721245 -8.3752303 0
6.3451888 -1.8469573 0
-8.0618896 12.914175 0
1.8629211 6.4506235 0
-1.0010893 2.4480664 0
-8.0283469 6.4609894 0
-8.3521085 -16.857354 0
-4.4332611 5.7775747 0
-9.715992 -1.299216 0
11.949883 5.9093401 0
-3.4167711 4.0170128 0
-13.928148 4.5369565 0
-3.2322325 -8.9759871 0
-11.333348 -0.001527675 0
9.7103273 2.9371867 0
-4.7878359 5.3780023 0
1.7653564 3.9174516 0
3.0773063 1.8919722 0
-2.3843562 17.753097 0
-10.122433 -1.2151545 0
-11.16602 -7.4210336 0
-9.5697578 -0.49837222 0
-4.0500331 -9.1698243 0
-5.6406548 3.2430977 0
-4.6399539 -11.349749 0
-6.2764241 12.503802 0
-8.5484707 9.7465742 0
-1.9276102 -11.644037 0
-1.8118762 7.8860369 0
-10.70774 6.8110545 0
-1.3643254 3.8934885 0
-1.9223039 -1.347858 0
3.382861 6.4905981 0
3.7209195 0.55243914 0
4.6843872 -7.3285482 0
-10.345973 2.6891564 0
2.3128978 -11.708959 0
-10.763652 -9.4468929 0
-16.372466 -10.951864 0
0.77485821 6.847059 0
2.4342303 3.8290138 0
-3.107694 9.7398431 0
-3.9720363 8.6393757 0
3.4738556 4.951508 0
1.6486019 3.1152095 0
-3.1163538 -11.675887 0
-8.86546 -3.3745941 0
-0.46586244 1.2885668 0
7.7366837 -0.66977211 0
-10.478315 -5.89535 0
-17.032744 0.33110967 0
-7.780797 -4.6097076 0
-2.4725477 -4.3870133 0
-6.3296012 -0.10987089 0
-0.33517564 13.926359 0
-10.118205 -0.15033152 0
-8.1881255 7.7045744 0
-2.0099931 -14.008992 0
0.85820502 -7.6890665 0
-9.7307423 2.4703302 0
-9.893039 0.047605214 0
-5.0163326 -9.5553901 0
9.7138987 -4.7769567 0
-9.2789728 -2.0535358 0
-1.9437384 2.8651777 0
-1.6217099 -11.22595 0
-3.4116747 -5.6019598 0
-9.7567634 0.68195197 0
-8.8434514 3.5521659 0
-3.9908547 6.4340376 0
-1.6599235 -7.0151012 0
-5.473839 -1.7871206 0
3.2647556 8.6991794 0
-6.5508631 -6.0844937 0
2.7161777 -3.8359391 0
-0.7267356 -3.4002717 0
-0.15473039 -1.0851682 0
2.4624118 5.6402317 0
6.2440281 1.6044466 0
6.1935331 -8.210986 0
9.9722287 -7.3827357 0
-11.649207 -8.3996987 0
-9.6712338 -1.4113717 0
-8.9026267 1.337475 0
-5.0853721 -7.786749 0
8.8460263 -7.2879546 0
-1.8171938 -4.1676515 0
-4.6808238 -8.7139197 0
-7.508462 -0.27012853 0
0.48730922 -7.683837 0
-3.4786099 0.64100729 0
-7.7037752 4.5868204 0
2.4464649 3.939294 0
-2.4865996 -5.8699177 0
-2.1384256 7.41922 0
-3.8796275 -11.789781 0
-0.78147513 6.0180181 0
-11.28704 -3.0260199 0
-0.32603529 6.5869162 0
-5.6266491 0.13362766 0
-9.9027981 2.0662319 0
-6.9416841 2.3689353 0
-9.1796023 1.543152 0
-9.968731 -0.23237177 0
-10.000039 0.46380758 0
-13.472483 0.60396993 0
-10.007007 0.93049091 0
-10.004298 0.89363777 0
0.283493 15.685667 0
2.0851721 3.3537846 0
-10.16491 -0.1943053 0
-10.02424 0.12715251 0
8.5644527 5.3719195 0
1.9252153 -2.9337004 0
-1.9349571 4.6701649 0
-5.8473365 7.2601268 0
4.9115283 -2.3186955 0
-1.9530046 9.4233798 0
-3.1370783 1.2999378 0
-8.5896447 13.474063 0
-6.3177999 -4.7517539 0
-12.066492 0.47866308 0
2.4398347 2.5025651 0
-9.9448352 8.4575358 0
-8.6370744 9.3834102 0
-8.5027575 3.2798981 0
0.97261311 -7.392512 0
1.1913628 -11.577382 0
-6.3495148 4.5868128 0
10.02846 -0.40252514 0
6.6821465 -7.7312801 0
-4.9238068 0.92176936 0
6.8528964 -5.4045987 0
-9.7196463 3.4789191 0
-9.5788242 -2.1732405 0
10.023641 0.23358604 0
-9.9962455 -0.30035377 0
-9.3599067 -3.6856645 0
-3.8718039 -7.5552161 0
-9.6431423 5.3395119 0
-14.594124 0.28475446 0
-7.2562891 0.53032016 0
-12.441715 8.81454 0
-5.3552849 4.1553308 0
-9.6805301 4.6823466 0
-11.750828 -3.5730028 0
-6.4494139 -10.207503 0
-9.917818 0.64858739 0
7.3540172 0.7102146 0
-3.4885954 4.2118916 0
1.6776456 -6.1201542 0
-11.652946 4.6063196 0
-2.1755455 7.470311 0
-9.9343332 -1.3177923 0
-10.641531 -1.2248812 0
-7.2315865 4.9478652 0
-12.475722 -8.0070169 0
-4.1408537 4.423408 0
-3.3322155 7.6649723 0
-2.5058085 14.786571 0
-10.041601 -0.040402154 0
-9.9268028 1.3325152 0
-4.1287964 6.973422 0
4.4399656 -0.14425715 0
-2.1740449 0.62155043 0
-3.8941125 5.6982727 0
-10.06044 -1.5403016 0
-3.9641814 3.2223417 0
-6.7161391 10.486885 0
-10.195085 0.046767361 0
-10.006987 0.0094505689 0
-10.014178 0.071190942 0
6.6491634 0.57295222 0
-7.5845674 -4.3734034 0
8.2642774 -7.9397621 0
-8.5495979 5.4120388 0
-0.59080153 -9.0259745 0
1.7501613 7.8217958 0
9.9678083 1.0638338 0
10.03936 -0.043748555 0
-10.009318 -0.013756285 0
0.5123418 -8.2020489 0
-2.3472362 7.541334 0
-5.3587586 3.2774112 0
3.4204366 -7.0220775 0
10.042668 0.026111937 0
9.9590634 -1.0633132 0
0.59069049 -15.351587 0
1.4054872 7.5745887 0
-7.3224062 -9.9036595 0
-9.7068042 2.3942176 0
-7.0065943 -3.9410452 0
-9.5157408 -3.3406903 0
-10.012127 -0.050883053 0
-10.007424 -0.0097225242 0
-9.9996421 0.012843307 0
-9.9825248 0.024173267 0
-14.267068 -3.0066236 0
-7.0231805 -2.5967814 0
-3.2204369 8.7055675 0
2.3837742 -4.838963 0
-9.8794559 1.7594993 0
-8.386441 -6.076342 0
-10.057315 0.0037645735 0
-10.058565 0.00011500413 0
-10.039503 0.31720551 0
0.79413671 -10.920223 0
8.9736388 5.5996678 0
-10.001517 0.0068668843 0
-10.009982 0.32951349 0
-10.058601 -0.00037677498 0
-10.058008 -0.003390846 0
-8.5114765 5.858736 0
-9.8631566 -1.9191289 0
-4.5792699 -4.1793107 0
4.7071593 9.9914019 0
-4.9940414 3.8615581 0
-10.270526 -5.779814 0
-9.9090718 -0.079894325 0
-9.9996225 -0.012648462 0
-10.000605 0.014852047 0
2.0907601 -4.9648197 0
-6.7344361 1.8047611 0
-10.264179 0.34922185 0
-10.016659 -0.66852713 0
-12.516672 0.10626244 0
2.1805287 11.27602 0
8.2821002 4.8941199 0
9.9981527 -0.00011123435 0
9.9981581 -0.00026118895 0
9.9942575 -0.21290792 0
-10.022821 0.0055547255 0
0.44907336 -13.974326 0
-10.012849 -0.037566132 0
9.9924051 -0.2718526 0
9.99815 0.0004113893 0
9.9981312 0.00014743721 0
8.4190331 -4.7136715 0
-9.2885517 7.5007454 0
-1.646682 -12.015144 0
-11.612289 3.1471094 0
-10.401959 -0.049762472 0
-4.8554289 4.0986167 0
-10.19605 0.1663454 0
-9.9893972 -0.023082077 0
-9.9903184 0.038785614 0
-10.061209 -0.15117554 0
-10.003776 0.00068055333 0
-10.004348 0.0086286769 0
4.2290616 10.576591 0
-5.2084154 -5.6712342 0
7.4040352 5.7528265 0
9.9981022 -0.0048716638 0
9.99958 -5.4916723e-06 0
9.9995851 -1.0244415e-06 0
9.9996002 0.0010790001 0
9.9993408 -0.0017294566 0
-10.014954 0.00076762154 0
9.9986806 0.030867642 0
9.9996028 0.0014046834 0
9.9995856 9.5700733e-07 0
9.9995808 2.7457384e-06 0
9.997802 0.0054298531 0
7.0221428 -6.1573554 0
-5.4463247 -13.869652 0
-0.58651544 0.48252899 0
-9.0660314 5.8154888 0
-10.009638 0.0013959217 0
-10.003511 -0.0039543187 0
-10.024848 -0.0040984572 0
-10.004176 0.015540815 0
-10.000733 -0.00091235618 0
-9.9998218 8.5349499e-05 0
-9.9981792 0.014822433 0
-4.9800101 -2.1169925 0
9.8780454 -1.2146486 0
10.000277 0.0026820417 0
10.000403 -1.7755748e-05 0
10.000435 -2.9829886e-06 0
10.000437 -4.9831382e-09 0
10.000437 -1.0708937e-07 0
10.000502 0.00020096297 0
10.001315 -0.0012110661 0
10.000499 0.00032814049 0
10.000436 -1.7224636e-07 0
10.000436 -6.3148539e-09 0
10.000435 2.9829187e-06 0
10.000415 1.9199665e-06 0
10.000738 -6.4372863e-07 0
9.9018706 1.2448553 0
-4.5423419 2.7175169 0
1.4199881 8.3664107 0
-9.9997755 -0.0015924129 0
-9.9999108 8.9699305e-05 0
-9.9999204 -0.012386269 0
-10.01171 0.011702262 0
-10.012395 -9.9364527e-05 0
-10.012678 0.0021755938 0
-12.331794 -5.5087457 0
7.2289425 6.1754547 0
9.8816039 -0.070356896 0
9.9963848 -9.0000626e-05 0
9.9964153 -9.430286e-07 0
9.9964156 6.3678564e-11 0
9.9964156 7.0933378e-12 0
9.9964156 -1.9391804e-09 0
9.9964156 2.0080361e-08 0
9.9964216 -7.7128043e-08 0
9.9964156 3.9845204e-08 0
9.9964156 -3.4637581e-09 0
9.9964156 -5.9352905e-12 0
9.9964156 -3.010163e-11 0
9.9964153 1.0811289e-06 0
9.9963864 9.5494687e-05 0
9.9006039 0.056364564 0
6.9813101 -6.3459872 0
-12.040114 2.7852861 0
-10.002934 -0.060881179 0
-10.012388 7.0338772e-05 0
-10.0117 -0.01169981 0
-3.557018 7.3693801 0
0.65840944 -5.6981222 0
7.8496567 6.1903487 0
-1.3080751 -8.1679214 0
1.1669845 1.3097573 0
1.6928748 -4.1233705 0
-6.4592093 -6.8126281 0
9.9391467 5.7118187 0
-6.8248778 1.8582538 0
-10.324388 5.6018045 0
2.0644558 2.9675076 0
-4.3267612 10.207627 0
7.5768432 -6.6290912 0
2.0509779 -3.7560722 0
3.7504042 -5.5996277 0
5.3136608 0.40626864 0
-5.9172106 -15.164717 0
12.77249 4.5072554 0
-6.1708239 -2.3383883 0
-7.0659305 -5.2631446 0
4.5557358 19.525442 0
-5.6245207 8.7958369 0
1.6736195 -0.32212774 0
-6.3935595 -4.5199507 0
3.7012707 13.679172 0
-2.6309731 -13.726701 0
7.5281357 -3.8451003 0
-5.3673173 -9.6102458 0
-5.7386389 -2.3384725 0
-4.3767425 1.0373093 0
6.5640254 5.2716381 0
-6.0558642 6.1984433 0
8.7643682 -1.5586125 0
0.67558283 3.1736897 0
5.1709378 -4.49836 0
-13.162262 -1.9319939 0
10.018459 12.594578 0
-2.0518734 -4.8382345 0
8.3710127 -10.895977 0
-7.3621301 -17.523541 0
-2.4619118 -3.6501889 0
8.9978586 -0.75981259 0
7.0399746 3.94589 0
4.0925224 1.6801183 0
-1.2165233 -14.565664 0
-8.3176802 7.2291757 0
-0.12288558 1.044665 0
-5.3900771 9.5760935 0
7.9605056 7.0228032 0
-2.6309732 13.726701 0
0.19396509 -9.5473261 0
10.296899 -9.826703 0
-11.176304 1.744499 0
-9.8337012 -4.9776756 0
-1.3417425 -4.120851 0
-3.3374784 13.589697 0
12.088366 -9.9781421 0
2.8465999 -13.256351 0
-13.639302 6.8085704 0
-3.9881439 3.9716625 0
11.841646 -3.792984 0
-5.5000144 0.25228384 0
10.577526 6.8984612 0
-10.344513 -10.17979 0
2.3508379 -2.7283543 0
3.2503356 -0.47212651 0
7.8285793 12.639318 0
5.0715292 -0.17390642 0
4.1276071 3.7725763 0
7.7472336 5.2792036 0
-7.0556759 2.8096434 0
6.9630809 5.0893571 0
-4.1298167 3.049352 0
-2.1148311 -3.2006663 0
0.16181702 9.5286727 0
0.06429391 -3.5244672 0
-6.8350623 -10.617907 0
11.144635 3.3922426 0
-0.65814991 -8.885506 0
2.3642107 -2.7903724 0
-11.275941 10.800713 0
-2.9515118 -3.7422022 0
0.28356464 -1.6980881 0
1.0853244 8.5835887 0
7.1945972 16.354481 0
-3.3664473 -6.4423647 0
0.6781171 -7.3175823 0
-13.023996 -3.217645 0
-3.1941319 -12.993165 0
-2.2504542 3.9958556 0
-8.7630225 9.6813121 0
2.2114197 -5.946895 0
13.411306 5.6905007 0
-2.9820305 -3.6789907 0
0.10584674 -2.1693921 0
6.4687407 -4.8752251 0
6.0719379 10.162452 0
-1.2552429 14.411972 0
-6.8350681 10.617897 0
0.099082171 3.5336437 0
8.201009 7.9306511 0
5.5188815 8.3353688 0
-9.6365644 -8.1557693 0
3.6548907 -4.1542293 0
-14.755462 -6.4245384 0
-3.0618657 14.566759 0
4.3008628 -7.3128735 0
11.279208 12.056166 0
3.0588345 -8.9561099 0
2.8324969 2.9860628 0
7.2281365 7.6022153 0
-5.4009983 5.1235376 0
2.5830911 0.85841148 0
-9.6122364 3.6184198 0
-4.6787817 7.080365 0
-2.4210789 11.850813 0
6.8553589 -2.699463 0
3.298264 -1.2370476 0
2.9180248 9.9834889 0