# vtk DataFile Version 4.0
hesp visualization file
ASCII
DATASET UNSTRUCTURED_GRID
POINTS 32 double
1.2725446 1.1225446 4
1.2726143 2.2449379 4
1.2726143 3.3673724 4
1.2725446 4.4897656 4
2.3949379 1.1226143 4
2.3949417 2.2449417 4
2.3949417 3.3673686 4
2.3949379 4.489696 4
3.5173724 1.1226143 4
3.5173686 2.2449417 4
3.5173686 3.3673686 4
3.5173724 4.489696 4
4.6397656 1.1225446 4
4.639696 2.2449379 4
4.639696 3.3673724 4
4.6397656 4.4897656 4
16.972545 1.1225446 4
16.972614 2.2449379 4
16.972614 3.3673724 4
16.972545 4.4897656 4
18.094938 1.1226143 4
18.094942 2.2449417 4
18.094942 3.3673686 4
18.094938 4.489696 4
19.217372 1.1226143 4
19.217369 2.2449417 4
19.217369 3.3673686 4
19.217372 4.489696 4
20.339766 1.1225446 4
20.339696 2.2449379 4
20.339696 3.3673724 4
20.339766 4.4897656 4
CELLS 0 0
CELL_TYPES 0
POINT_DATA 32
SCALARS m double
LOOKUP_TABLE default
1
1
1
1
1
1
1
1
1
1
1
1
1
1
1
1
1
1
1
1
1
1
1
1
1
1
1
1
1
1
1
1
VECTORS v double
10.010995 0.01099531 0
10.020273 0.0018435895 0
10.020273 -0.0018435895 0
10.010995 -0.01099531 0
10.001844 0.020273216 0
10.00236 0.0023597626 0
10.00236 -0.0023597626 0
10.001844 -0.020273216 0
9.9981564 0.020273217 0
9.9976403 0.0023597631 0
9.9976403 -0.0023597631 0
9.9981564 -0.020273217 0
9.9890047 0.010995315 0
9.9797268 0.0018435914 0
9.9797268 -0.0018435914 0
9.9890047 -0.010995315 0
-9.9890047 0.010995315 0
-9.9797268 0.0018435914 0
-9.9797268 -0.0018435914 0
-9.9890047 -0.010995315 0
-9.9981564 0.020273217 0
-9.9976403 0.0023597631 0
-9.9976403 -0.0023597631 0
-9.9981564 -0.020273217 0
-10.001844 0.020273216 0
-10.00236 0.0023597626 0
-10.00236 -0.0023597626 0
-10.001844 -0.020273216 0
-10.010995 0.01099531 0
-10.020273 0.0018435895 0
-10.020273 -0.0018435895 0
-10.010995 -0.01099531 0
