# vtk DataFile Version 4.0
hesp visualization file
ASCII
DATASET UNSTRUCTURED_GRID
POINTS 1250 double
33.805936 3.3474476 4
30.506273 2.7575829 4
32.960072 4.0645252 4
32.332089 4.3682064 4
30.3774 6.0570362 4
30.748442 6.8681037 4
30.732974 7.8583485 4
30.388883 8.9803696 4
30.388602 10.102159 4
30.3886 11.22462 4
30.388602 12.347946 4
30.388816 13.479865 4
30.664204 14.891967 4
30.388824 15.703909 4
30.3886 16.836932 4
30.3886 17.959393 4
30.388602 19.081854 4
30.388888 20.20453 4
30.558421 21.064671 4
30.307673 21.506274 4
31.406296 23.202772 4
32.308902 24.713812 4
32.976906 25.131649 4
30.495134 26.435414 4
33.805797 25.836516 4
30.554128 -5.6242374 4
33.860383 1.4317022 4
30.150533 0.89695287 4
31.301816 4.3843495 4
32.558392 6.2519894 4
31.517932 7.1643347 4
31.717803 7.8318007 4
30.937362 8.9793222 4
30.937355 10.102156 4
30.937354 11.22462 4
30.937353 12.346327 4
30.937136 13.460014 4
30.63513 14.344678 4
30.937124 15.724218 4
30.937354 16.83693 4
30.937354 17.959393 4
30.937355 19.081857 4
30.937362 20.203922 4
31.717445 21.347282 4
31.443011 21.987762 4
31.537437 22.578137 4
31.30226 24.765001 4
30.153535 28.284866 4
33.860381 27.752313 4
30.554128 34.808251 4
31.564676 0.97010154 4
31.776398 3.318699 4
31.694827 5.4168454 4
32.0268 5.5269581 4
30.286995 5.4188839 4
31.42016 7.8551801 4
32.160653 9.7547118 4
31.712354 8.9339911 4
31.714572 10.10207 4
31.714544 11.22462 4
31.714544 12.347507 4
31.714617 13.47596 4
32.01717 14.822848 4
31.714619 15.7079 4
31.714544 16.836931 4
31.714544 17.959393 4
31.714571 19.08194 4
31.710931 20.248855 4
32.174726 19.428834 4
30.752643 21.567099 4
30.325185 23.625325 4
33.263066 23.692845 4
31.577501 23.901137 4
31.778337 25.868162 4
31.564679 28.213914 4
31.670399 -1.3943817 4
30.387368 -2.136121 4
32.362129 3.1882232 4
32.572341 4.0412219 4
30.979876 6.3238887 4
31.035541 6.9771874 4
32.055405 7.8908151 4
32.11004 8.9893977 4
32.263541 10.101932 4
32.263566 11.22462 4
32.263565 12.346759 4
32.263488 13.464321 4
31.928039 14.463201 4
32.263485 15.719813 4
32.263566 16.83693 4
32.263566 17.959393 4
32.263544 19.082087 4
32.089593 20.195613 4
32.0589 21.294854 4
30.89611 21.878595 4
31.938503 23.795829 4
32.558098 25.162343 4
32.358905 25.989699 4
30.387366 31.320134 4
31.670399 30.578395 4
34.092972 4.4021512 4
30.216722 3.4532816 4
30.661327 1.8411426 4
34.420444 4.8737042 4
33.396315 6.4286477 4
32.122084 6.7308254 4
33.041506 7.8299101 4
33.04066 8.9799413 4
33.040661 10.102156 4
33.040662 11.22462 4
33.040662 12.347199 4
33.040671 13.471943 4
33.176491 14.833754 4
33.040671 15.71201 4
33.040662 16.836931 4
33.040662 17.959393 4
33.040661 19.081857 4
33.04066 20.204192 4
33.041481 21.353741 4
32.124035 22.454053 4
32.36922 22.66893 4
34.069232 24.578606 4
30.661823 27.340113 4
30.214517 25.729457 4
34.116864 24.865914 4
30.939967 -0.78888574 4
32.731228 -0.97083302 4
35.206366 4.6965556 4
32.349692 5.7528189 4
33.979609 6.6438422 4
33.163631 7.1499218 4
33.580297 7.8719173 4
33.590117 8.9795494 4
33.590209 10.102159 4
33.590211 11.22462 4
33.590211 12.347004 4
33.590201 13.467807 4
33.44443 14.422025 4
33.5902 15.716247 4
33.590211 16.836931 4
33.590211 17.959393 4
33.590209 19.081854 4
33.590119 20.204383 4
33.580362 21.312262 4
33.205898 22.391769 4
34.011611 22.269431 4
32.33356 23.438974 4
35.217201 24.487047 4
32.731359 30.154881 4
30.939965 29.9729 4
31.924093 1.611441 4
36.188276 2.7014891 4
31.739878 2.9321488 4
32.627562 4.5251463 4
33.125151 5.7119568 4
34.367201 6.7303848 4
34.367021 7.8572525 4
34.367018 8.9797122 4
34.367018 10.102158 4
34.367018 11.22462 4
34.367018 12.347099 4
34.367019 13.470064 4
34.37812 14.676394 4
34.367019 15.713935 4
34.367018 16.836931 4
34.367018 17.959393 4
34.367018 19.081855 4
34.367018 20.204318 4
34.36702 21.326759 4
34.367117 22.456282 4
33.251757 23.395022 4
32.795052 24.68775 4
31.733373 26.244844 4
36.187623 26.482381 4
31.924585 27.576388 4
37.261542 -3.3150206 4
34.708704 4.171009 4
35.636283 2.5773479 4
34.090062 5.7065036 4
35.7829 5.7749037 4
34.914634 6.7373326 4
34.917304 7.8572205 4
34.917306 8.9796867 4
34.917307 10.102158 4
34.917307 11.22462 4
34.917307 12.347073 4
34.917306 13.469206 4
34.905168 14.53397 4
34.917306 15.714816 4
34.917307 16.836931 4
34.917307 17.959393 4
34.917307 19.081855 4
34.917306 20.204317 4
34.917304 21.326795 4
34.914478 22.445133 4
35.835937 23.570331 4
33.97788 23.301207 4
35.635125 26.606117 4
34.706649 25.012288 4
37.261542 32.499034 4
32.922691 3.6503525 4
34.269486 2.0203027 4
36.339238 3.2452094 4
36.280958 4.9958248 4
36.002678 5.9033964 4
35.685852 6.7384745 4
35.693781 7.8565118 4
35.693574 8.979697 4
35.693574 10.102158 4
35.693574 11.22462 4
35.693574 12.347083 4
35.693574 13.469604 4
35.693879 14.606699 4
35.693574 15.714407 4
35.693574 16.836931 4
35.693574 17.959393 4
35.693574 19.081855 4
35.693574 20.204317 4
35.693817 21.327496 4
35.685948 22.445641 4
35.973004 23.280385 4
36.235095 24.158778 4
36.327866 25.949613 4
34.269535 27.163491 4
32.885135 25.472105 4
32.223957 1.128664 4
35.066291 -0.73741622 4
35.204433 3.1725331 4
35.975835 4.5733005 4
35.944071 7.6553906 4
36.248283 6.7327786 4
36.244441 7.8564824 4
36.244709 8.9796955 4
36.244709 10.102158 4
36.244709 11.22462 4
36.244709 12.347082 4
36.244709 13.469509 4
36.244366 14.582687 4
36.244709 15.714505 4
36.244709 16.836931 4
36.244709 17.959393 4
36.244709 19.081855 4
36.244709 20.204317 4
36.244449 21.327567 4
36.247993 22.451502 4
35.956384 21.528493 4
35.989723 24.632602 4
35.205427 26.010472 4
35.066291 29.921428 4
32.223955 28.055347 4
32.978928 0.86133704 4
36.418945 1.8697351 4
36.999369 4.6046478 4
36.081007 4.2920034 4
36.642685 5.436527 4
37.020267 6.7375153 4
37.020241 7.8572298 4
37.020242 8.9796962 4
37.020242 10.102158 4
37.020242 11.22462 4
37.020242 12.347083 4
37.020242 13.469547 4
37.020244 14.593396 4
37.020242 15.714466 4
37.020242 16.836931 4
37.020242 17.959393 4
37.020242 19.081855 4
37.020242 20.204317 4
37.020241 21.326784 4
37.020264 22.446387 4
36.652938 23.753274 4
36.082774 24.894067 4
37.000797 24.578681 4
36.418763 27.314448 4
32.978927 28.322677 4
34.465243 1.1233917 4
36.750409 1.3916425 4
37.199786 6.4090229 4
37.415444 3.9487282 4
37.219728 5.6220853 4
37.570693 6.7328939 4
37.572173 7.8572353 4
37.572176 8.9796964 4
37.572176 10.102158 4
37.572176 11.22462 4
37.572176 12.347083 4
37.572176 13.469543 4
37.572173 14.591192 4
37.572176 15.71447 4
37.572176 16.836931 4
37.572176 17.959393 4
37.572176 19.081855 4
37.572176 20.204317 4
37.572173 21.326778 4
37.570623 22.451177 4
37.219882 23.571405 4
37.413644 25.233813 4
37.196592 22.775092 4
36.750804 27.79234 4
34.465243 28.060622 4
35.592069 1.1264484 4
35.651363 2.0415936 4
38.014183 2.5177872 4
38.353072 4.8658907 4
38.347174 5.5983727 4
38.346938 6.7347639 4
38.346938 7.8572346 4
38.346938 8.9796964 4
38.346938 10.102158 4
38.346938 11.22462 4
38.346938 12.347083 4
38.346938 13.469545 4
38.346938 14.592062 4
38.346938 15.714469 4
38.346938 16.836931 4
38.346938 17.959393 4
38.346938 19.081855 4
38.346938 20.204317 4
38.346938 21.326779 4
38.346938 22.44925 4
38.34692 23.569808 4
38.356064 24.319479 4
38.012415 26.665479 4
35.651588 27.142844 4
35.592069 28.057565 4
36.714065 1.1254526 4
37.815657 1.9436421 4
37.633349 3.4464626 4
38.55095 4.4612746 4
38.898398 5.6205038 4
38.89945 6.7347764 4
38.899454 7.8572342 4
38.899454 8.9796964 4
38.899454 10.102158 4
38.899454 11.22462 4
38.899454 12.347083 4
38.899454 13.469545 4
38.899454 14.591976 4
38.899454 15.714469 4
38.899454 16.836931 4
38.899454 17.959393 4
38.899454 19.081855 4
38.899454 20.204317 4
38.899454 21.326779 4
38.89945 22.449237 4
38.898692 23.572702 4
38.550901 24.721689 4
37.633361 25.737389 4
37.816277 27.240792 4
36.714063 28.058559 4
37.836919 1.1260746 4
37.875568 2.2612445 4
38.77638 3.11565 4
39.67709 4.5403361 4
39.673607 5.6117337 4
39.673606 6.7347725 4
39.673606 7.8572343 4
39.673606 8.9796964 4
39.673606 10.102158 4
39.673606 11.22462 4
39.673606 12.347083 4
39.673606 13.469545 4
39.673606 14.592007 4
39.673606 15.714469 4
39.673606 16.836931 4
39.673606 17.959393 4
39.673606 19.081855 4
39.673606 20.204317 4
39.673606 21.326779 4
39.673606 22.449241 4
39.673606 23.571737 4
39.676858 24.64541 4
38.776463 26.06885 4
37.875711 26.92377 4
37.836919 28.057939 4
38.959392 1.1260488 4
38.95937 2.2450049 4
40.11142 3.9784554 4
40.221605 4.4595184 4
40.226323 5.6126182 4
40.226329 6.7347722 4
40.226329 7.8572343 4
40.226329 8.9796964 4
40.226329 10.102158 4
40.226329 11.22462 4
40.226329 12.347083 4
40.226329 13.469545 4
40.226329 14.592007 4
40.226329 15.714469 4
40.226329 16.836931 4
40.226329 17.959393 4
40.226329 19.081855 4
40.226329 20.204317 4
40.226329 21.326779 4
40.226329 22.449241 4
40.226324 23.571692 4
40.221873 24.723496 4
40.112292 25.204635 4
38.95937 26.939008 4
38.959392 28.057964 4
40.081855 1.126048 4
40.081857 2.244953 4
41.090639 2.9472564 4
41.000234 4.4924208 4
41.000227 5.6123166 4
41.000227 6.7347723 4
41.000227 7.8572343 4
41.000227 8.9796964 4
41.000227 10.102158 4
41.000227 11.22462 4
41.000227 12.347083 4
41.000227 13.469545 4
41.000227 14.592007 4
41.000227 15.714469 4
41.000227 16.836931 4
41.000227 17.959393 4
41.000227 19.081855 4
41.000227 20.204317 4
41.000227 21.326779 4
41.000227 22.449241 4
41.000227 23.571696 4
41.000234 24.691655 4
41.089671 26.237318 4
40.081857 26.93906 4
40.081855 28.057965 4
41.204317 1.1260478 4
41.204309 2.2449535 4
41.203642 3.3668257 4
41.551341 4.4884477 4
41.551362 5.6123067 4
41.551362 6.7347723 4
41.551362 7.8572343 4
41.551362 8.9796964 4
41.551362 10.102158 4
41.551362 11.22462 4
41.551362 12.347083 4
41.551362 13.469545 4
41.551362 14.592007 4
41.551362 15.714469 4
41.551362 16.836931 4
41.551362 17.959393 4
41.551362 19.081855 4
41.551362 20.204317 4
41.551362 21.326779 4
41.551362 22.449241 4
41.551362 23.571707 4
41.551341 24.695531 4
41.203648 25.817182 4
41.204309 26.93906 4
41.204317 28.057965 4
42.326779 1.1260477 4
42.326779 2.2449366 4
42.326778 3.3673861 4
[...]
POINT_DATA 1250
SCALARS m double
LOOKUP_TABLE default
1
1
1
1
1
1
1
1
1
1
1
1
1
1
1
1
1
1
1
1
1
1
1
1
1
1
1
1
1
1
1
1
1
1
1
1
1
1
1
1
1
1
1
1
1
1
1
1
1
1
1
1
1
1
1
1
1
1
1
1
1
1
1
1
1
1
1
1
1
1
1
1
1
1
1
1
1
1
1
1
1
1
1
1
1
1
1
1
1
1
1
1
1
1
1
1
1
1
1
1
1
1
1
1
1
1
1
1
1
1
1
1
1
1
1
1
1
1
1
1
1
1
1
1
1
1
1
1
1
1
1
1
1
1
1
1
1
1
1
1
1
1
1
1
1
1
1
1
1
1
1
1
1
1
1
1
1
1
1
1
1
1
1
1
1
1
1
1
1
1
1
1
1
1
1
1
1
1
1
1
1
1
1
1
1
1
1
1
1
1
1
1
1
1
1
1
1
1
1
1
1
1
1
1
1
1
1
1
1
1
1
1
1
1
1
1
1
1
1
1
1
1
1
1
1
1
1
1
1
1
1
1
1
1
1
1
1
1
1
1
1
1
1
1
1
1
1
1
1
1
1
1
1
1
1
1
1
1
1
1
1
1
1
1
1
1
1
1
1
1
1
1
1
1
1
1
1
1
1
1
1
1
1
1
1
1
1
1
1
1
1
1
1
1
1
1
1
1
1
1
1
1
1
1
1
1
1
1
1
1
1
1
1
1
1
1
1
1
1
1
1
1
1
1
1
1
1
1
1
1
1
1
1
1
1
1
1
1
1
1
1
1
1
1
1
1
1
1
1
1
1
1
1
1
1
1
1
1
1
1
1
1
1
1
1
1
1
1
1
1
1
1
1
1
1
1
1
1
1
1
1
1
1
1
1
1
1
1
1
1
1
1
1
1
1
1
1
1
1
1
1
1
1
1
1
1
1
1
1
1
1
1
1
1
1
1
1
1
1
1
1
1
1
1
1
1
1
1
1
1
1
1
1
1
1
1
1
1
1
1
1
1
1
1
1
1
1
1
1
1
1
1
1
1
1
1
1
1
1
1
1
1
1
1
1
1
1
1
1
1
1
1
1
1
1
1
1
1
1
1
1
1
1
1
1
1
1
1
1
1
1
1
1
1
1
1
1
1
1
1
1
1
1
1
1
1
1
1
1
1
1
1
1
1
1
1
1
1
1
1
1
1
1
1
1
1
1
1
1
1
1
1
1
1
1
1
1
1
1
1
1
1
1
1
1
1
1
1
1
1
1
1
1
1
1
1
1
1
1
1
1
1
1
1
1
1
1
1
1
1
1
1
1
1
1
1
1
1
1
1
1
1
1
1
1
1
1
1
1
1
1
1
1
1
1
1
1
1
1
1
1
1
1
1
1
1
1
1
1
1
1
1
1
1
1
1
1
1
1
1
1
1
1
1
1
1
1
1
1
1
1
1
1
1
1
1
1
1
1
1
1
1
1
1
1
1
1
1
1
1
1
1
1
1
1
1
1
1
1
1
1
1
1
1
1
1
1
1
1
1
1
1
1
1
1
1
1
1
1
1
1
1
1
1
1
1
1
1
1
1
1
1
1
1
1
1
1
1
1
1
1
1
1
1
1
1
1
1
1
1
1
1
1
1
1
1
1
1
1
1
1
1
1
1
1
1
1
1
1
1
1
1
1
1
1
1
1
1
1
1
1
1
1
1
1
1
1
1
1
1
1
1
1
1
1
1
1
1
1
1
1
1
1
1
1
1
1
1
1
1
1
1
1
1
1
1
1
1
1
1
1
1
1
1
1
1
1
1
1
1
1
1
1
1
1
1
1
1
1
1
1
1
1
1
1
1
1
1
1
1
1
1
1
1
1
1
1
1
1
1
1
1
1
1
1
1
1
1
1
1
1
1
1
1
1
1
1
1
1
1
1
1
1
1
1
1
1
1
1
1
1
1
1
1
1
1
1
1
1
1
1
1
1
1
1
1
1
1
1
1
1
1
1
1
1
1
1
1
1
1
1
1
1
1
1
1
1
1
1
1
1
1
1
1
1
1
1
1
1
1
1
1
1
1
1
1
1
1
1
1
1
1
1
1
1
1
1
1
1
1
1
1
1
1
1
1
1
1
1
1
1
1
1
1
1
1
1
1
1
1
1
1
1
1
1
1
1
1
1
1
1
1
1
1
1
1
1
1
1
1
1
1
1
1
1
1
1
1
1
1
1
1
1
1
1
1
1
1
1
1
1
1
1
1
1
1
1
1
1
1
1
1
1
1
1
1
1
1
1
1
1
1
1
1
1
1
1
1
1
1
1
1
1
1
1
1
1
1
1
1
1
1
1
1
1
1
1
1
1
1
1
1
1
1
1
1
1
1
1
1
1
1
1
1
1
1
1
1
1
1
1
1
1
1
1
1
1
1
1
1
1
1
1
1
1
1
1
1
1
1
1
1
1
1
1
1
1
1
1
1
1
1
1
1
1
1
1
1
1
1
1
1
1
1
1
1
1
1
1
1
1
1
1
1
1
1
1
1
1
1
1
1
1
1
1
1
1
1
1
1
1
1
1
1
1
1
1
1
1
1
1
1
1
1
1
1
1
1
1
1
1
1
1
1
1
1
1
1
1
1
1
1
1
1
1
1
1
1
1
1
1
1
1
1
1
1
1
1
1
1
1
1
1
1
1
1
1
1
1
1
1
1
1
1
1
1
1
1
1
1
1
1
1
1
1
1
1
1
1
1
1
1
1
1
1
1
1
1
1
1
1
1
1
1
1
1
1
1
1
1
1
1
1
1
1
1
1
1
1
1
1
1
1
1
1
1
1
1
1
1
1
1
1
1
1
1
1
1
1
1
VECTORS v double
3.5224305 7.5374811 0
-6.342806 -8.3102926 0
8.3630348 11.576102 0
-7.7518115 -7.0576509 0
-3.4016102 -4.5669098 0
10.455793 1.2813748 0
9.9977885 0.0093687775 0
-10.000563 0.026542475 0
-10.005393 4.676656e-05 0
-10.005436 -2.489094e-06 0
-10.005368 0.038006518 0
-9.9949672 0.46217374 0
8.9764399 4.402476 0
-9.9945534 -0.47318727 0
-10.005436 4.9802245e-05 0
-10.005436 -6.2058757e-07 0
-10.005393 -4.8493331e-05 0
-10.000472 0.012721797 0
1.0239269 -13.512478 0
-2.2448462 -9.100319 0
5.9167504 6.2044852 0
-10.153413 0.94026088 0
10.729729 -9.4845348 0
-6.4037018 8.411853 0
3.5219117 -7.5377392 0
-2.6312616 -13.726701 0
8.1247505 -2.6298586 0
5.4317813 -9.7865282 0
10.107684 1.3758255 0
12.82081 -3.1695531 0
-0.32923301 -5.7913312 0
-9.6615528 -2.5580538 0
10.003478 -0.021521345 0
10.003425 -0.00010001444 0
10.003385 -1.4263574e-06 0
10.003315 -0.036319213 0
9.9929254 -0.44913848 0
-9.3773202 -3.5733406 0
9.9923045 0.45935729 0
10.003384 -5.1383343e-05 0
10.003385 4.1584635e-06 0
10.003424 0.00010529472 0
10.003413 -0.015391111 0
-9.797483 2.1799714 0
-2.6766171 4.8302626 0
-0.086197542 -1.8016486 0
10.110359 -1.6555372 0
5.479569 9.7824908 0
8.1247409 2.62986 0
-2.6312617 13.726701 0
9.313214 0.07679477 0
6.7636891 7.9637575 0
1.9277533 7.1395868 0
-8.0567202 -0.91318184 0
8.5330798 -5.4708146 0
4.1521343 11.405341 0
5.9814726 19.380114 0
-9.7276617 -2.0927656 0
-10.002026 -0.0093791005 0
-10.007759 -1.3575365e-05 0
-10.007746 0.017965975 0
-10.004182 0.27645026 0
9.3843805 3.470357 0
-10.004031 -0.28331782 0
-10.00776 2.8925759e-05 0
-10.007759 1.2276143e-05 0
-10.002381 0.0087435329 0
-9.737986 2.0918644 0
6.4457298 -19.385551 0
5.0226714 3.316826 0
10.002362 0.26767921 0
5.7201604 4.1409956 0
0.79903031 -5.8742724 0
7.1459033 -7.5793677 0
9.3132916 -0.076766804 0
-0.49691666 -3.6836742 0
-6.8360823 -10.619364 0
-4.7684744 -5.3995429 0
5.9306276 -1.1314214 0
-10.20449 5.0672215 0
-9.485139 3.5157432 0
9.593804 2.5530707 0
5.6300551 1.1041624 0
9.9931864 -0.046775651 0
10.002375 -1.2657389e-05 0
10.00236 -0.016384579 0
9.9987452 -0.25769143 0
-9.8808526 -1.8679183 0
9.9985167 0.26349418 0
10.002375 -2.7907752e-05 0
10.002375 1.3635585e-05 0
9.9943337 0.047851103 0
5.1026363 -1.1106423 0
9.8281975 -2.3085281 0
-12.067861 -11.489987 0
3.2574074 10.156798 0
5.9494738 1.8361161 0
-4.7859908 5.3670181 0
-6.8360882 10.619362 0
-0.49691512 3.6836756 0
-7.2647833 9.6106703 0
8.2260355 4.3315953 0
-8.7576991 -4.9231413 0
9.1692671 -5.0997981 0
6.3458958 8.9588899 0
-10.016968 -0.1250924 0
-9.9595656 -1.0827661 0
-10.009295 0.0098375389 0
-10.009706 -0.00014152961 0
-10.00956 -4.8510034e-06 0
-10.009557 0.004752817 0
-10.009072 0.10002205 0
-2.9446627 10.129555 0
-10.009084 -0.10272086 0
-10.009558 9.8661113e-06 0
-10.00956 4.6684524e-06 0
-10.009716 0.00014568384 0
-10.009276 -0.0049358698 0
-9.9610345 1.0670947 0
-9.9375012 0.15945009 0
-6.7469905 -8.0410749 0
0.68799656 -11.814814 0
-8.7571339 4.8992511 0
8.1834363 -4.3172736 0
-1.5497557 10.399081 0
-1.1248873 -6.3260558 0
-1.9932187 -10.927116 0
6.4543604 9.1890376 0
-6.8993008 10.789502 0
4.2466844 2.8562742 0
-11.715055 8.5573568 0
9.8633046 0.87880284 0
10.001209 -0.0081986149 0
10.00269 4.1288519e-05 0
10.00274 -3.5982308e-07 0
10.00274 -0.0041551328 0
10.00227 -0.089602054 0
2.7901255 -9.0035502 0
10.002204 0.091667865 0
10.002741 -9.1650334e-06 0
10.00274 5.337477e-07 0
10.002689 -4.047903e-05 0
10.001243 0.003909013 0
9.8651797 -0.8689902 0
-10.879936 -1.3123922 0
3.9869176 -9.4563146 0
-7.5956753 -10.746192 0
6.6435782 -9.0998718 0
-1.9926338 10.927283 0
-1.1248936 6.3260591 0
-0.15514542 -4.3488812 0
1.4154165 3.4259209 0
-6.4261957 -6.908941 0
6.5177483 5.865615 0
-14.643293 2.5362921 0
-10.040882 -0.18492566 0
-10.010287 0.00071661518 0
-10.010379 0.00063210225 0
-10.010381 -2.5156767e-08 0
-10.010381 -1.1406688e-08 0
-10.010381 0.00064528047 0
-10.010353 0.0210701 0
-9.4655975 3.4753805 0
-10.010368 -0.021673483 0
-10.010381 2.111966e-06 0
-10.010381 -5.1700038e-09 0
-10.010381 1.1564171e-08 0
-10.010379 2.7297668e-05 0
-10.010321 -0.00073183768 0
-10.04841 0.27125379 0
-11.608264 -7.4751675 0
10.55825 -0.5931519 0
-6.8752324 6.4506973 0
1.4092219 -3.432256 0
-0.15161334 4.3760887 0
4.8370531 -9.9977527 0
-5.8597706 -7.3416158 0
1.7323276 -3.4027288 0
-3.6073425 4.8091492 0
-2.5555771 -3.8538109 0
9.9466807 0.14336119 0
10.004287 -0.00076085819 0
10.004225 -0.00054230551 0
10.00423 4.9870072e-09 0
10.00423 7.0038474e-11 0
10.00423 -0.0005437637 0
10.004215 -0.018248209 0
9.4444124 -3.0613528 0
10.004199 0.018681274 0
10.004231 -1.7478447e-06 0
10.00423 4.5012325e-09 0
10.00423 6.413077e-10 0
10.004226 -1.2772106e-05 0
10.004278 0.00086772837 0
9.9334361 -0.2320805 0
10.044859 -0.024713565 0
-4.8595355 -6.9180154 0
1.7271925 3.4000593 0
-5.9845667 7.2616424 0
4.8370532 9.9977527 0
-1.268323 -6.5646929 0
-9.8626668 -1.5735418 0
6.3465863 -7.073395 0
8.559407 4.9937078 0
4.1973493 10.982312 0
-10.186516 0.17953157 0
-9.9955888 -0.056697592 0
-10.010214 8.9118253e-06 0
-10.010216 -7.376736e-08 0
-10.010216 5.4491059e-10 0
-10.010216 3.4893894e-05 0
-10.010215 0.0023622282 0
-9.9952445 0.59139742 0
-10.010216 -0.0024339239 0
-10.010216 3.5803672e-07 0
-10.010216 -6.3481889e-10 0
-10.010216 7.3201821e-08 0
-10.010214 2.6448578e-05 0
-9.9761341 0.071358581 0
-10.182788 -0.17935883 0
-8.139587 -5.7041483 0
7.3208981 -5.7494766 0
6.2776482 7.1392064 0
-9.8623143 1.5721378 0
-4.1497006 3.4531577 0
-9.9997161 0.046038518 0
-3.9332471 -8.2576606 0
2.678326 -3.3742054 0
0.58922019 -6.0730807 0
-1.4355569 17.721347 0
10.09983 -0.07343965 0
9.9523113 -0.085279952 0
10.006217 -5.6470403e-05 0
10.006219 -7.2572248e-08 0
10.006219 -9.033956e-10 0
10.006219 -2.8504973e-05 0
10.00622 -0.0019870088 0
9.9907532 -0.50680424 0
10.006217 0.0020319029 0
10.006219 -2.3510534e-07 0
10.006219 4.8839433e-10 0
10.006219 7.2656779e-08 0
10.006217 2.7736523e-05 0
9.956052 0.08687908 0
10.092863 0.080380823 0
-1.3570342 -17.731142 0
1.3710272 6.2979258 0
2.6891121 3.3650139 0
-3.9332448 8.2576548 0
-9.9999109 -0.046265189 0
-11.496065 -1.0678215 0
-9.9821264 -1.1049449 0
-4.8264801 8.5918195 0
-8.188972 -1.6430107 0
3.942519 -4.492293 0
-9.9910845 0.061737572 0
-10.009458 -0.00020371884 0
-10.009362 -9.3221699e-06 0
-10.009359 6.8359686e-10 0
-10.009359 3.8141146e-11 0
-10.009359 5.5972125e-08 0
-10.009359 0.00010815955 0
-10.009232 0.054863072 0
-10.009358 -0.00011195863 0
-10.009359 5.2826274e-08 0
-10.009359 -2.9179982e-11 0
-10.009359 -7.0817878e-10 0
-10.009362 9.4727632e-06 0
-10.009464 0.00020988646 0
-9.9913128 -0.065660271 0
3.9869901 4.6250092 0
-7.9953263 2.1087842 0
-4.8147263 -8.5963711 0
-9.987169 1.1115507 0
-11.496069 1.0678255 0
-10.023712 -0.0065505039 0
4.8638934 -8.8426702 0
-0.76236591 15.834625 0
-7.2030254 -7.0764076 0
-10.123552 0.17791166 0
9.9741883 -0.11924549 0
10.007968 7.0729017e-05 0
10.00806 1.9827451e-06 0
10.008062 2.495831e-11 0
10.008062 -8.0509883e-12 0
10.008062 -2.5192022e-08 0
10.008062 -8.8938046e-05 0
10.007932 -0.045796334 0
10.008062 9.0567191e-05 0
10.008062 -1.9645317e-08 0
10.008062 9.0421232e-12 0
10.008062 -1.6362131e-11 0
10.00806 -1.918339e-06 0
10.007964 -7.2424211e-05 0
9.9732857 0.12234851 0
-10.119103 -0.042314612 0
-7.2310233 7.0537983 0
-0.79269684 -15.837533 0
4.8712789 8.8373493 0
-10.023711 0.0065525707 0
-9.9978058 0.014823496 0
-8.9735531 -3.4613225 0
3.5902562 1.3196691 0
4.0573809 5.626595 0
-9.9956283 -0.55199923 0
-10.008259 -0.00032237895 0
-10.008224 8.8976964e-06 0
-10.008222 2.348826e-09 0
-10.008222 3.8752805e-12 0
-10.008222 9.1980434e-13 0
-10.008222 1.2051364e-09 0
-10.008222 -2.2057137e-08 0
-10.008222 0.0021464852 0
-10.008222 -2.4017873e-08 0
-10.008222 1.0304055e-09 0
-10.008222 -6.3835018e-13 0
-10.008222 -3.5855664e-12 0
-10.008222 -2.4039124e-09 0
-10.008224 -9.3549119e-06 0
-10.008259 0.00033703905 0
-10.008008 -0.07207931 0
4.0962518 -5.6034955 0
3.5376259 -1.4330982 0
-8.9694415 3.4690867 0
-9.9978049 -0.014827834 0
-10.078818 -0.9428223 0
-1.3535824 -6.9946234 0
-10.007015 0.48371288 0
-10.035238 -0.36572961 0
9.9859847 0.45958158 0
10.009273 0.00024646261 0
10.009338 -1.0318577e-05 0
10.009342 4.3675049e-11 0
10.009342 -2.1087399e-13 0
10.009342 -8.1111022e-14 0
10.009342 -6.3011689e-10 0
10.009342 -8.4411547e-09 0
10.009342 -0.0017502864 0
10.009342 -5.3170409e-09 0
10.009342 -5.4603853e-10 0
10.009342 1.5753014e-13 0
10.009342 -1.9126264e-13 0
10.009342 -6.7027687e-11 0
10.009338 1.0710457e-05 0
10.009272 -0.00024833278 0
9.9989566 0.059478554 0
-10.037229 0.34941449 0
-10.006851 -0.48457891 0
-1.3429871 6.9990373 0
-10.07991 0.94054201 0
-10.000377 0.0093616233 0
-8.9154001 -3.5244776 0
-9.8122379 -2.1439213 0
-9.8353244 2.001808 0
-10.007145 -0.022324466 0
-10.007167 9.1038255e-06 0
-10.007167 -4.2579849e-08 0
-10.007167 1.8653381e-11 0
-10.007167 2.6320811e-13 0
-10.007167 -2.4862541e-13 0
-10.007167 2.303974e-11 0
-10.007167 -2.4815322e-10 0
-10.007167 -8.6533973e-09 0
-10.007167 -4.3687685e-10 0
-10.007167 2.3857279e-11 0
-10.007167 4.9411508e-13 0
-10.007167 -2.6887398e-13 0
-10.007167 -1.8073982e-11 0
-10.007167 -1.3082865e-09 0
-10.007167 -8.9936139e-06 0
-10.007166 0.0012531945 0
-9.8466997 -1.9334603 0
-9.8114955 2.1480697 0
-8.8816076 3.6392178 0
-10.000378 -0.0093660124 0
-10.000035 0.0080304806 0
-10.000759 0.0015192532 0
-6.4268505 8.5609204 0
9.8279139 -1.7026243 0
10.009823 0.018035464 0
10.009889 -7.181619e-06 0
10.009891 1.1568666e-08 0
10.009891 4.7400017e-13 0
10.009891 6.7871903e-15 0
10.009891 -2.0889551e-13 0
10.009891 -3.9694269e-13 0
10.009891 7.9386169e-10 0
10.009891 -4.3303452e-09 0
10.009891 9.5081031e-10 0
10.009891 4.2034232e-13 0
10.009891 4.1321013e-13 0
10.009891 -5.0353126e-15 0
10.009891 -1.5585621e-12 0
10.009891 -5.3657785e-10 0
10.009889 7.3224585e-06 0
10.009844 -0.0008500118 0
9.8398482 1.6459292 0
-6.41336 -8.5738328 0
-10.000758 -0.0015232153 0
-10.000035 -0.0080305188 0
-10.000001 0.008002132 0
-9.999789 0.00025914654 0
6.2734953 -6.7295697 0
-10.006177 0.10022158 0
-10.006478 0.00024780032 0
-10.006476 1.4338116e-07 0
-10.006476 -1.7935475e-10 0
-10.006476 1.4340406e-13 0
-10.006476 5.4576161e-15 0
-10.006476 -4.9937673e-14 0
-10.006476 -9.0074492e-14 0
-10.006476 1.4813828e-12 0
-10.006476 -8.4446337e-12 0
-10.006476 1.7507487e-12 0
-10.006476 9.0272354e-14 0
-10.006476 9.5185057e-14 0
-10.006476 -4.9818098e-15 0
-10.006476 -2.4113914e-13 0
-10.006476 -3.1781341e-11 0
-10.006476 -1.3244952e-07 0
-10.006478 -0.00025761279 0
-10.006199 -0.097776617 0
6.258748 6.7397406 0
-9.9997881 -0.00026044372 0
-10.000001 -0.0080021414 0
-10.000001 0.0080024088 0
-10.000595 0.0017960391 0
-10.050054 -0.064070873 0
10.006203 -0.081548087 0
10.006867 -0.00020453373 0
10.00687 -7.4484565e-08 0
10.00687 -5.8398516e-11 0
10.00687 -5.5814411e-14 0
10.00687 5.468887e-15 0
10.00687 -2.9237094e-14 0
10.00687 -4.907336e-14 0
10.00687 -6.8818973e-14 0
10.00687 -1.0459079e-13 0
10.00687 7.3632798e-14 0
10.00687 4.917125e-14 0
10.00687 5.3924482e-14 0
10.00687 -4.8735459e-15 0
10.00687 4.0213409e-15 0
10.00687 4.2228697e-11 0
10.00687 6.0398903e-08 0
10.006867 0.00021264212 0
10.006223 0.079555478 0
-10.04962 0.063371716 0
-10.000598 -0.0017988106 0
-10.000001 -0.0080024142 0
-10.000001 0.0079966147 0
-10.000017 9.8882412e-06 0
-10.000052 7.3011912e-06 0
-10.000549 1.1997129e-05 0
-10.000559 5.7459214e-07 0
-10.000559 1.1655616e-09 0
-10.000559 2.9099075e-12 0
-10.000559 -1.1928607e-15 0
-10.000559 5.3443014e-15 0
-10.000559 -4.5995873e-15 0
-10.000559 -7.5697296e-17 0
-10.000559 4.4633337e-15 0
-10.000559 -4.5958585e-15 0
-10.000559 -1.8504451e-16 0
-10.000559 9.1564824e-17 0
-10.000559 4.7555207e-15 0
-10.000559 -4.7627272e-15 0
-10.000559 -9.2660615e-16 0
-10.000559 -3.0147037e-12 0
-10.000559 -1.1579603e-09 0
-10.000559 -5.7356077e-07 0
-10.000549 -1.2020007e-05 0
-10.000052 -7.3363215e-06 0
-10.000017 -9.8609509e-06 0
-10.000001 -0.0079966143 0
-10 0.0079958865 0
-10 1.2033798e-08 0
-10.000001 -1.2919742e-07 0
-10.000002 3.7881166e-07 0
-10.000003 2.7368257e-10 0
-10.000003 8.2656921e-13 0
-10.000003 2.6185669e-16 0
-10.000003 -2.2723732e-15 0
-10.000003 5.3378696e-15 0
-10.000003 -4.5953591e-15 0
-10.000003 -7.8386734e-17 0
-10.000003 4.4491905e-15 0
-10.000003 -4.5710192e-15 0
-10.000003 -1.9050817e-16 0
-10.000003 9.2948689e-17 0
-10.000003 4.7517372e-15 0
-10.000003 -4.7574129e-15 0
-10.000003 -1.6087013e-17 0
-10.000003 -8.9524356e-17 0
-10.000003 -8.4928986e-13 0
-10.000003 -2.6707312e-10 0
-10.000002 -3.7882163e-07 0
-10.000001 1.2913252e-07 0
-10 -1.1964774e-08 0
-10 -0.0079958865 0
-10 0.0079958865 0
-10 -9.5553132e-09 0
-10 -4.7255243e-07 0
-10 1.0881685e-10 0
-10 5.3941578e-12 0
-10 -5.2592766e-16 0
-10 -2.7532121e-17 0
-10 -2.2720907e-15 0
-10 5.3383385e-15 0
-10 -4.5952143e-15 0
-10 -7.7720996e-17 0
-10 4.4502143e-15 0
-10 -4.5703604e-15 0
-10 -1.9054096e-16 0
-10 9.257241e-17 0
-10 4.7513485e-15 0
-10 -4.7576197e-15 0
-10 -1.6429021e-17 0
-10 1.9789866e-16 0
-10 2.9909052e-15 0
-10 -5.39378e-12 0
-10 -1.0881913e-10 0
-10 4.7255243e-07 0
-10 9.5553232e-09 0
-10 -0.0079958865 0
-10 0.0079958865 0
-10 -9.5564096e-09 0
-10 -4.7255236e-07 0
-10 1.0885813e-10 0
-10 5.4608815e-12 0
-10 -4.9015071e-16 0
-10 -2.7484778e-17 0
-10 -2.2714124e-15 0
-10 5.3378184e-15 0
-10 -4.5949618e-15 0
-10 -7.7780362e-17 0
-10 4.4500351e-15 0
-10 -4.5699699e-15 0
-10 -1.9144557e-16 0
-10 9.2611075e-17 0
-10 4.7514577e-15 0
-10 -4.7580374e-15 0
-10 -1.6430784e-17 0
-10 1.9835621e-16 0
-10 2.9565463e-15 0
-10 -5.4605201e-12 0
-10 -1.0886035e-10 0
-10 4.7255236e-07 0
-10 9.5564192e-09 0
-10 -0.0079958865 0
-9.9999995 0.0079958944 0
-9.9999995 -9.965663e-09 0
-9.9999995 -4.7257388e-07 0
-9.9999995 1.08913e-10 0
-9.9999995 5.4610415e-12 0
-9.9999995 -4.907016e-16 0
-9.9999995 -2.7303881e-17 0
-9.9999995 -2.2702612e-15 0
-9.9999995 5.3379238e-15 0
-9.9999995 -4.5945653e-15 0
-9.9999995 -7.6859866e-17 0
-9.9999995 4.4513193e-15 0
-9.9999995 -4.5676405e-15 0
-9.9999995 -1.9302924e-16 0
-9.9999995 9.1630795e-17 0
-9.9999995 4.7504528e-15 0
-9.9999995 -4.7579461e-15 0
-9.9999995 -1.6430616e-17 0
-9.9999995 1.9824049e-16 0
-9.9999995 2.9573951e-15 0
-9.9999995 -5.4606953e-12 0
-9.9999995 -1.0891575e-10 0
-9.9999995 4.7257388e-07 0
-9.9999995 9.9656725e-09 0
-9.9999995 -0.0079958944 0
-10.000004 0.0079973569 0
-10 1.5777429e-07 0
-10 -4.7329869e-07 0
-10 1.0703722e-10 0
-10 5.469965e-12 0
-10 -4.8596346e-16 0
-10 -2.7594047e-17 0
-10 -2.2723223e-15 0
-10 5.3388219e-15 0
-10 -4.5957968e-15 0
-10 -7.8102911e-17 0
-10 4.4501489e-15 0
-10 -4.5717423e-15 0
-10 -1.9046834e-16 0
-10 9.2950972e-17 0
-10 4.7525711e-15 0
-10 -4.7589327e-15 0
-10 -1.6431122e-17 0
-10 1.9860953e-16 0
-10 2.9443291e-15 0
-10 -5.4696246e-12 0
-10 -1.0703963e-10 0
-10 4.7329869e-07 0
-10 -1.5777429e-07 0
-10.000004 -0.0079973569 0
-10.007555 0.0075553159 0
-10.007997 4.3007496e-06 0
-10.007996 -4.6281158e-07 0
-10.007996 1.7635215e-11 0
-10.007996 5.3965246e-12 0
-10.007996 1.3114038e-16 0
-10.007996 -2.7719357e-17 0
-10.007996 -2.218363e-15 0
-10.007996 5.2029809e-15 0
-10.007996 -4.4803391e-15 0
-10.007996 -7.9464977e-17 0
-10.007996 4.3327629e-15 0
-10.007996 -4.4631908e-15 0
-10.007996 -1.8128792e-16 0
-10.007996 9.4802796e-17 0
-10.007996 4.6351367e-15 0
-10.007996 -4.6389737e-15 0
-10.007996 -1.6431231e-17 0
-10.007996 1.9481427e-16 0
-10.007996 2.2951197e-15 0
-10.007996 -5.3953881e-12 0
-10.007996 -1.7640166e-11 0
-10.007996 4.6281158e-07 0
-10.007997 -4.3007496e-06 0
-10.007555 -0.0075553159 0
-3.5224821 7.5375808 0
6.4894047 -7.902366 0
-8.9207108 10.334078 0
9.9092769 2.1630169 0
-8.4310122 1.6325716 0
-5.8242022 1.467254 0
-9.9977843 0.0047362834 0
10.000122 -0.059832167 0
10.005393 5.5865049e-05 0
10.005436 4.2657315e-06 0
10.005329 -0.046781267 0
9.9940177 -0.48112614 0
-8.9753679 -4.4110049 0
9.9934285 0.49216862 0
10.005439 -5.4891992e-05 0
10.005436 -3.0018302e-07 0
10.005393 -4.8501498e-05 0
10.000471 0.012721975 0
-1.0894167 -13.526567 0
2.2474875 -9.0999795 0
-5.9136377 6.21284 0
10.085669 1.6624115 0
-10.07691 -10.283464 0
6.3777062 8.5555613 0
-3.5218511 -7.5377589 0
2.6312616 -13.726701 0
-8.1247505 -2.6298588 0
-5.4323757 -9.7969764 0
-10.111335 1.6831517 0
-5.0977517 -6.5819499 0
1.9715956 -9.5367309 0
-7.6140696 3.2140868 0
-10.003356 0.062981145 0
-10.003423 -0.00010990273 0
-10.003385 -7.6953525e-06 0
-10.003274 0.046621936 0
-9.9917526 0.47406833 0
9.3403176 3.6666144 0
-9.9913849 -0.48441956 0
-10.003382 4.9863665e-05 0
-10.003385 3.8412708e-06 0
-10.003424 0.00010531039 0
-10.003413 -0.01539143 0
9.7975626 2.1795381 0
2.6626297 4.8259878 0
-0.3809406 -2.1570175 0
-10.10818 -1.4122247 0
-5.4794582 9.7800826 0
-8.1247404 2.6298609 0
2.6312617 13.726701 0
-9.3132117 0.076803972 0
-3.7004998 9.7344307 0
0.15001353 5.3502944 0
9.2497195 8.6313736 0
-8.5271006 4.9672532 0
6.2929205 2.1733224 0
-6.9087069 19.374276 0
9.7503952 -2.018819 0
10.002764 -0.0080914462 0
10.007759 -9.5788438e-06 0
10.007702 -0.035452652 0
10.003022 -0.31730441 0
-9.3728264 -3.4651549 0
10.002798 0.32432929 0
10.007762 -3.4526324e-05 0
10.007759 1.2475984e-05 0
10.002384 0.0087381644 0
9.7381467 2.0914347 0
-6.4497334 -19.385509 0
-4.9523066 3.3342837 0
-10.002335 0.26590621 0
-5.5534281 4.3616586 0
-0.83733322 -5.769123 0
-8.0707824 -6.4421088 0
-9.313291 -0.076756388 0
0.49691667 -3.6836742 0
6.8360823 -10.619364 0
4.7448353 -5.4826813 0
-6.2068656 -2.4391886 0
3.8990719 5.6314885 0
14.281618 3.9343504 0