# vtk DataFile Version 4.0
hesp visualization file
ASCII
DATASET UNSTRUCTURED_GRID
POINTS 1250 double
33.488558 2.6695555 4
31.064327 3.515843 4
32.156118 3.8654773 4
31.614909 4.5663138 4
30.683069 6.4687092 4
30.663304 6.7412473 4
30.370632 7.8574205 4
30.370539 8.9797053 4
30.370539 10.102158 4
30.370539 11.22462 4
30.370539 12.347091 4
30.370539 13.46965 4
30.370734 14.602146 4
30.370539 15.714361 4
30.370539 16.836931 4
30.370539 17.959393 4
30.370539 19.081855 4
30.370539 20.204317 4
30.370631 21.326595 4
30.539137 22.306451 4
30.878641 22.640063 4
31.621425 24.626467 4
32.156761 25.311393 4
31.059557 25.669887 4
33.488473 26.514428 4
30.790925 -4.3888343 4
33.129087 1.6676024 4
30.56354 1.7781398 4
30.392178 4.2605215 4
31.395331 6.4730137 4
31.673896 7.6309322 4
30.955783 7.8568477 4
30.955767 8.9796877 4
30.955767 10.102158 4
30.955767 11.22462 4
30.955767 12.347075 4
30.955767 13.469448 4
30.95557 14.58252 4
30.955767 15.714567 4
30.955767 16.836931 4
30.955767 17.959393 4
30.955767 19.081855 4
30.955767 20.204318 4
30.955783 21.327164 4
31.674886 21.553394 4
31.360988 22.843409 4
30.392415 24.913932 4
30.561796 27.404552 4
33.129086 27.516412 4
30.790925 33.572848 4
30.726611 0.96342625 4
30.949192 3.0402292 4
31.524025 4.7845539 4
32.617499 5.5792507 4
30.779131 5.5663904 4
30.920566 6.8910202 4
31.835122 8.0680402 4
31.696675 8.9796984 4
31.696676 10.102158 4
31.696676 11.22462 4
31.696676 12.347086 4
31.696676 13.469604 4
31.696745 14.598476 4
31.696676 15.714408 4
31.696676 16.836931 4
31.696676 17.959393 4
31.696676 19.081855 4
31.696675 20.204319 4
31.833862 21.116485 4
30.905595 22.24531 4
30.778894 23.601269 4
32.599061 23.745946 4
31.508435 24.41741 4
30.949052 26.143953 4
30.726611 28.220586 4
31.715039 -1.0628041 4
31.002579 -1.1803479 4
32.790099 3.6766585 4
31.764516 4.2655726 4
31.898498 5.8704933 4
31.900743 6.7349965 4
32.281128 7.8579737 4
32.282388 8.9796932 4
32.282388 10.102158 4
32.282388 11.22462 4
32.282388 12.34708 4
32.282388 13.469498 4
32.282315 14.586648 4
32.282388 15.714516 4
32.282388 16.836931 4
32.282388 17.959393 4
32.282388 19.081855 4
32.282388 20.204317 4
32.281134 21.326048 4
31.900749 22.44901 4
31.9075 23.241606 4
31.764894 24.918274 4
32.78848 25.50442 4
31.002578 30.364361 4
31.715039 30.246817 4
34.743608 3.5453439 4
30.717443 3.0667712 4
31.449626 2.2841952 4
33.598109 5.3393983 4
32.90522 5.6494951 4
33.022823 6.7344235 4
33.022819 7.8572358 4
33.022819 8.979697 4
33.022819 10.102158 4
33.022819 11.22462 4
33.022819 12.347083 4
33.022819 13.469562 4
33.022828 14.594481 4
33.022819 15.71445 4
33.022819 16.836931 4
33.022819 17.959393 4
33.022819 19.081855 4
33.022819 20.204317 4
33.022819 21.326777 4
33.022823 22.449604 4
32.971376 23.384005 4
33.516698 23.925844 4
31.450068 26.899207 4
30.717398 26.117226 4
34.743592 25.638665 4
31.04126 -0.21960646 4
32.910604 0.01260582 4
35.173817 4.332521 4
33.020168 4.7825292 4
33.675346 6.0331691 4
33.609307 6.7349281 4
33.609354 7.8572336 4
33.609355 8.979696 4
33.609355 10.102158 4
33.609355 11.22462 4
33.609355 12.347082 4
33.609355 13.469532 4
33.609345 14.590176 4
33.609355 15.714481 4
33.609355 16.836931 4
33.609355 17.959393 4
33.609355 19.081855 4
33.609355 20.204317 4
33.609354 21.32678 4
33.609307 22.449073 4
33.700105 23.180792 4
33.018447 24.405141 4
35.173078 24.851301 4
32.910683 29.171428 4
31.041259 29.40362 4
31.938244 2.0022168 4
36.025492 2.5008527 4
32.565821 3.1048333 4
33.42639 4.4754062 4
34.352461 5.5642376 4
34.349088 6.7347902 4
34.349089 7.8572343 4
34.349089 8.9796964 4
34.349089 10.102158 4
34.349089 11.22462 4
34.349089 12.347083 4
34.349089 13.469547 4
34.34909 14.592554 4
34.349089 15.714466 4
34.349089 16.836931 4
34.349089 17.959393 4
34.349089 19.081855 4
34.349089 20.204317 4
34.349089 21.326779 4
34.349088 22.449226 4
34.349146 23.572708 4
33.426312 24.707994 4
32.565877 26.079547 4
36.025284 26.683248 4
31.938433 27.183185 4
36.826207 -2.4152229 4
34.17877 4.2368902 4
35.483992 2.8815467 4
34.501893 5.1867409 4
34.932712 5.6457303 4
34.936572 6.7347603 4
34.936574 7.8572343 4
34.936574 8.9796964 4
34.936574 10.102158 4
34.936574 11.22462 4
34.936574 12.347083 4
34.936574 13.469543 4
34.936574 14.591641 4
34.936574 15.71447 4
34.936574 16.836931 4
34.936574 17.959393 4
34.936574 19.081855 4
34.936574 20.204317 4
34.936574 21.326779 4
34.936572 22.449251 4
34.936272 23.571354 4
34.508464 23.993982 4
35.483274 26.302118 4
34.18203 24.945979 4
36.826207 31.599236 4
33.394215 3.2231412 4
35.15709 2.1617678 4
35.76781 3.8812 4
36.060378 5.2939753 4
35.991477 5.6177475 4
35.675518 6.734766 4
35.675517 7.8572343 4
35.675517 8.9796964 4
35.675517 10.102158 4
35.675517 11.22462 4
35.675517 12.347083 4
35.675517 13.469545 4
35.675517 14.592071 4
35.675517 15.714469 4
35.675517 16.836931 4
35.675517 17.959393 4
35.675517 19.081855 4
35.675517 20.204317 4
35.675517 21.326779 4
35.675518 22.449248 4
35.993941 23.562852 4
36.053996 23.889653 4
35.762625 25.307818 4
35.157107 27.022152 4
33.394214 25.960872 4
33.123804 1.1252366 4
35.420283 0.0057780008 4
34.970849 3.4731226 4
35.879589 4.5050208 4
36.080373 6.0629481 4
36.263862 6.7347625 4
36.263863 7.8572343 4
36.263863 8.9796964 4
36.263863 10.102158 4
36.263863 11.22462 4
36.263863 12.347083 4
36.263863 13.469544 4
36.263863 14.591968 4
36.263863 15.714469 4
36.263863 16.836931 4
36.263863 17.959393 4
36.263863 19.081855 4
36.263863 20.204317 4
36.263863 21.326779 4
36.263862 22.449251 4
36.08372 23.120109 4
35.879604 24.678568 4
34.970877 25.710705 4
35.420283 29.178234 4
33.123804 28.058777 4
34.013447 0.95810811 4
37.391277 2.256362 4
37.436464 3.8307736 4
36.817541 4.4370275 4
37.002065 5.6115461 4
37.002065 6.7347712 4
37.002065 7.8572343 4
37.002065 8.9796964 4
37.002065 10.102158 4
37.002065 11.22462 4
37.002065 12.347083 4
37.002065 13.469545 4
37.002065 14.59201 4
37.002065 15.714469 4
37.002065 16.836931 4
37.002065 17.959393 4
37.002065 19.081855 4
37.002065 20.204317 4
37.002065 21.326779 4
37.002065 22.449242 4
37.002064 23.571717 4
36.817865 24.747416 4
37.43691 25.352992 4
37.391263 26.927755 4
34.013446 28.225906 4
35.367263 1.1241317 4
36.244419 1.9871726 4
37.273117 4.9865338 4
37.723478 4.449754 4
37.590972 5.6127427 4
37.59101 6.7347725 4
37.59101 7.8572343 4
37.59101 8.9796964 4
37.59101 10.102158 4
37.59101 11.22462 4
37.59101 12.347083 4
37.59101 13.469545 4
37.59101 14.592005 4
37.59101 15.714469 4
37.59101 16.836931 4
37.59101 17.959393 4
37.59101 19.081855 4
37.59101 20.204317 4
37.59101 21.326779 4
37.59101 22.449241 4
37.590973 23.571723 4
37.72374 24.734137 4
37.272341 24.197585 4
36.244535 27.196958 4
35.367263 28.059882 4
36.491997 1.1253743 4
36.492206 2.246541 4
37.885087 3.0763722 4
38.328656 4.4920556 4
38.328672 5.6122761 4
38.328672 6.7347723 4
38.328672 7.8572343 4
38.328672 8.9796964 4
38.328672 10.102158 4
38.328672 11.22462 4
38.328672 12.347083 4
38.328672 13.469545 4
38.328672 14.592007 4
38.328672 15.714469 4
38.328672 16.836931 4
38.328672 17.959393 4
38.328672 19.081855 4
38.328672 20.204317 4
38.328672 21.326779 4
38.328672 22.449241 4
38.328672 23.571707 4
38.328656 24.69204 4
37.88451 26.10773 4
36.492206 26.937473 4
36.491997 28.058639 4
37.614468 1.1253676 4
37.683989 2.2297395 4
38.533417 3.4032658 4
38.917489 4.488467 4
38.917826 5.6123286 4
38.917828 6.7347723 4
38.917828 7.8572343 4
38.917828 8.9796964 4
38.917828 10.102158 4
38.917828 11.22462 4
38.917828 12.347083 4
38.917828 13.469545 4
38.917828 14.592007 4
38.917828 15.714469 4
38.917828 16.836931 4
38.917828 17.959393 4
38.917828 19.081855 4
38.917828 20.204317 4
38.917828 21.326779 4
38.917828 22.449241 4
38.917826 23.571701 4
38.91749 24.695496 4
38.53342 25.780677 4
37.684303 26.954349 4
37.614468 28.058646 4
38.736931 1.1253649 4
38.736925 2.2449533 4
39.659476 3.3085064 4
39.655283 4.4899921 4
39.655283 5.6123106 4
39.655283 6.7347723 4
39.655283 7.8572343 4
39.655283 8.9796964 4
39.655283 10.102158 4
39.655283 11.22462 4
39.655283 12.347083 4
39.655283 13.469545 4
39.655283 14.592007 4
39.655283 15.714469 4
39.655283 16.836931 4
39.655283 17.959393 4
39.655283 19.081855 4
39.655283 20.204317 4
39.655283 21.326779 4
39.655283 22.449241 4
39.655283 23.571703 4
39.655283 24.694025 4
39.659492 25.875621 4
38.736925 26.93906 4
38.736931 28.058648 4
39.859393 1.1253646 4
39.85939 2.2449418 4
40.237788 3.4004446 4
40.243147 4.489768 4
40.24315 5.61231 4
40.24315 6.7347723 4
40.24315 7.8572343 4
40.24315 8.9796964 4
40.24315 10.102158 4
40.24315 11.22462 4
40.24315 12.347083 4
40.24315 13.469545 4
40.24315 14.592007 4
40.24315 15.714469 4
40.24315 16.836931 4
40.24315 17.959393 4
40.24315 19.081855 4
40.24315 20.204317 4
40.24315 21.326779 4
40.24315 22.449241 4
40.24315 23.571703 4
40.243147 24.694243 4
40.237769 25.783505 4
39.85939 26.939071 4
39.859393 28.058649 4
40.981855 1.1253645 4
40.981855 2.2449362 4
40.981851 3.3673863 4
40.98185 4.4898482 4
40.98185 5.6123102 4
40.98185 6.7347723 4
40.98185 7.8572343 4
40.98185 8.9796964 4
40.98185 10.102158 4
40.98185 11.22462 4
40.98185 12.347083 4
40.98185 13.469545 4
40.98185 14.592007 4
40.98185 15.714469 4
40.98185 16.836931 4
40.98185 17.959393 4
40.98185 19.081855 4
40.98185 20.204317 4
40.98185 21.326779 4
40.98185 22.449241 4
40.98185 23.571703 4
40.98185 24.694165 4
40.981851 25.816627 4
40.981855 26.939077 4
40.981855 28.058649 4
42.104317 1.1253645 4
42.104317 2.244936 4
42.104317 3.3673861 4
42.104317 4.4898482 4
42.104317 5.6123102 4
42.104317 6.7347723 4
42.104317 7.8572343 4
42.104317 8.9796964 4
42.104317 10.102158 4
42.104317 11.22462 4
42.104317 12.347083 4
42.104317 13.469545 4
42.104317 14.592007 4
42.104317 15.714469 4
42.104317 16.836931 4
42.104317 17.959393 4
42.104317 19.081855 4
42.104317 20.204317 4
42.104317 21.326779 4
42.104317 22.449241 4
42.104317 23.571703 4
42.104317 24.694165 4
42.104317 25.816627 4
42.104317 26.939077 4
42.104317 28.058649 4
43.226779 1.1253645 4
43.226779 2.244936 4
43.226779 3.3673861 4
43.226779 4.4898482 4
[...]
POINT_DATA 1250
SCALARS m double
LOOKUP_TABLE default
1
1
1
1
1
1
1
1
1
1
1
1
1
1
1
1
1
1
1
1
1
1
1
1
1
1
1
1
1
1
1
1
1
1
1
1
1
1
1
1
1
1
1
1
1
1
1
1
1
1
1
1
1
1
1
1
1
1
1
1
1
1
1
1
1
1
1
1
1
1
1
1
1
1
1
1
1
1
1
1
1
1
1
1
1
1
1
1
1
1
1
1
1
1
1
1
1
1
1
1
1
1
1
1
1
1
1
1
1
1
1
1
1
1
1
1
1
1
1
1
1
1
1
1
1
1
1
1
1
1
1
1
1
1
1
1
1
1
1
1
1
1
1
1
1
1
1
1
1
1
1
1
1
1
1
1
1
1
1
1
1
1
1
1
1
1
1
1
1
1
1
1
1
1
1
1
1
1
1
1
1
1
1
1
1
1
1
1
1
1
1
1
1
1
1
1
1
1
1
1
1
1
1
1
1
1
1
1
1
1
1
1
1
1
1
1
1
1
1
1
1
1
1
1
1
1
1
1
1
1
1
1
1
1
1
1
1
1
1
1
1
1
1
1
1
1
1
1
1
1
1
1
1
1
1
1
1
1
1
1
1
1
1
1
1
1
1
1
1
1
1
1
1
1
1
1
1
1
1
1
1
1
1
1
1
1
1
1
1
1
1
1
1
1
1
1
1
1
1
1
1
1
1
1
1
1
1
1
1
1
1
1
1
1
1
1
1
1
1
1
1
1
1
1
1
1
1
1
1
1
1
1
1
1
1
1
1
1
1
1
1
1
1
1
1
1
1
1
1
1
1
1
1
1
1
1
1
1
1
1
1
1
1
1
1
1
1
1
1
1
1
1
1
1
1
1
1
1
1
1
1
1
1
1
1
1
1
1
1
1
1
1
1
1
1
1
1
1
1
1
1
1
1
1
1
1
1
1
1
1
1
1
1
1
1
1
1
1
1
1
1
1
1
1
1
1
1
1
1
1
1
1
1
1
1
1
1
1
1
1
1
1
1
1
1
1
1
1
1
1
1
1
1
1
1
1
1
1
1
1
1
1
1
1
1
1
1
1
1
1
1
1
1
1
1
1
1
1
1
1
1
1
1
1
1
1
1
1
1
1
1
1
1
1
1
1
1
1
1
1
1
1
1
1
1
1
1
1
1
1
1
1
1
1
1
1
1
1
1
1
1
1
1
1
1
1
1
1
1
1
1
1
1
1
1
1
1
1
1
1
1
1
1
1
1
1
1
1
1
1
1
1
1
1
1
1
1
1
1
1
1
1
1
1
1
1
1
1
1
1
1
1
1
1
1
1
1
1
1
1
1
1
1
1
1
1
1
1
1
1
1
1
1
1
1
1
1
1
1
1
1
1
1
1
1
1
1
1
1
1
1
1
1
1
1
1
1
1
1
1
1
1
1
1
1
1
1
1
1
1
1
1
1
1
1
1
1
1
1
1
1
1
1
1
1
1
1
1
1
1
1
1
1
1
1
1
1
1
1
1
1
1
1
1
1
1
1
1
1
1
1
1
1
1
1
1
1
1
1
1
1
1
1
1
1
1
1
1
1
1
1
1
1
1
1
1
1
1
1
1
1
1
1
1
1
1
1
1
1
1
1
1
1
1
1
1
1
1
1
1
1
1
1
1
1
1
1
1
1
1
1
1
1
1
1
1
1
1
1
1
1
1
1
1
1
1
1
1
1
1
1
1
1
1
1
1
1
1
1
1
1
1
1
1
1
1
1
1
1
1
1
1
1
1
1
1
1
1
1
1
1
1
1
1
1
1
1
1
1
1
1
1
1
1
1
1
1
1
1
1
1
1
1
1
1
1
1
1
1
1
1
1
1
1
1
1
1
1
1
1
1
1
1
1
1
1
1
1
1
1
1
1
1
1
1
1
1
1
1
1
1
1
1
1
1
1
1
1
1
1
1
1
1
1
1
1
1
1
1
1
1
1
1
1
1
1
1
1
1
1
1
1
1
1
1
1
1
1
1
1
1
1
1
1
1
1
1
1
1
1
1
1
1
1
1
1
1
1
1
1
1
1
1
1
1
1
1
1
1
1
1
1
1
1
1
1
1
1
1
1
1
1
1
1
1
1
1
1
1
1
1
1
1
1
1
1
1
1
1
1
1
1
1
1
1
1
1
1
1
1
1
1
1
1
1
1
1
1
1
1
1
1
1
1
1
1
1
1
1
1
1
1
1
1
1
1
1
1
1
1
1
1
1
1
1
1
1
1
1
1
1
1
1
1
1
1
1
1
1
1
1
1
1
1
1
1
1
1
1
1
1
1
1
1
1
1
1
1
1
1
1
1
1
1
1
1
1
1
1
1
1
1
1
1
1
1
1
1
1
1
1
1
1
1
1
1
1
1
1
1
1
1
1
1
1
1
1
1
1
1
1
1
1
1
1
1
1
1
1
1
1
1
1
1
1
1
1
1
1
1
1
1
1
1
1
1
1
1
1
1
1
1
1
1
1
1
1
1
1
1
1
1
1
1
1
1
1
1
1
1
1
1
1
1
1
1
1
1
1
1
1
1
1
1
1
1
1
1
1
1
1
1
1
1
1
1
1
1
1
1
1
1
1
1
1
1
1
1
1
1
1
1
1
1
1
1
1
1
1
1
1
1
1
1
1
1
1
1
1
1
1
1
1
1
1
1
1
1
1
1
1
1
1
1
1
1
1
1
1
1
1
1
1
1
1
1
1
1
1
1
1
1
1
1
1
1
1
1
1
1
1
1
1
1
1
1
1
1
1
1
1
1
1
1
1
1
1
1
1
1
1
1
1
1
1
1
1
1
1
1
1
1
1
1
1
1
1
1
1
1
VECTORS v double
3.5352675 7.5129475 0
-5.796854 -8.7513666 0
7.6278076 1.644779 0
8.2532045 1.1683988 0
-3.4831898 -3.5501406 0
-5.7303515 0.471036 0
-9.9970505 0.010093469 0
-9.9997724 0.00036622115 0
-9.9997809 -1.758907e-08 0
-9.9997809 -2.0145682e-08 0
-9.9997809 0.00034965402 0
-9.9997791 0.0043465185 0
-9.9911484 0.42047468 0
-9.9997808 -0.0044306976 0
-9.9997809 3.817521e-07 0
-9.9997809 -8.4842548e-10 0
-9.9997809 -7.8102265e-10 0
-9.9997725 -8.0945537e-06 0
-9.9970517 -0.0098950343 0
-2.9116277 -8.7620543 0
5.8057867 6.3168018 0
8.8327809 -1.7060031 0
7.6149338 -1.7880124 0
-5.9055435 8.7575728 0
3.5346586 -7.5131572 0
-2.630998 -13.726701 0
8.1323432 -2.5957915 0
-5.4315413 -9.789463 0
10.106929 1.3763479 0
13.317401 0.22464915 0
-2.5982021 -4.8502586 0
9.9996322 -0.014778872 0
9.9987519 -0.00038663523 0
9.9987368 -7.9989323e-08 0
9.9987367 1.6759279e-08 0
9.9987367 -0.00033041723 0
9.9987367 -0.0042083741 0
9.9900641 -0.41056682 0
9.9987348 0.0042882608 0
9.9987368 -3.5878718e-07 0
9.9987367 7.862426e-10 0
9.9987368 9.4987767e-08 0
9.9987518 5.0966963e-05 0
9.9996141 0.014811859 0
-2.5322254 4.8612245 0
11.102628 4.2804156 0
10.109066 -1.6549749 0
-5.4445601 9.7793359 0
8.1323362 2.5957901 0
-2.6309981 13.726701 0
9.313306 0.071384885 0
-3.5619924 4.1597204 0
4.464681 1.1603982 0
7.887081 4.2513159 0
-9.9994769 -0.4123682 0
6.3842665 10.307502 0
1.8838084 18.355475 0
-10.001763 -3.8523188e-05 0
-10.001771 -8.7873698e-07 0
-10.001772 -5.9279855e-09 0
-10.001772 0.00013825516 0
-10.001771 0.0023364083 0
-9.9986509 0.25866767 0
-10.001772 -0.0023850817 0
-10.001772 1.8227937e-07 0
-10.001772 -2.7203344e-10 0
-10.001771 8.7040823e-07 0
-10.001764 0.00017915478 0
1.8114209 -18.369385 0
-3.3107112 -10.607979 0
-10.000323 0.26789518 0
7.4936342 -0.89211863 0
3.8975811 -0.29838932 0
-3.5346181 -4.1516177 0
9.3133015 -0.071388764 0
-0.49358128 -3.6842043 0
-6.8376611 -10.620681 0
-4.7272604 -5.452669 0
9.2891095 -0.62876484 0
-10.217626 4.9906007 0
-10.001426 0.0016185201 0
9.9215844 0.046295132 0
9.9989822 -0.00020621677 0
9.9990194 -5.4405172e-07 0
9.9990195 3.6720483e-09 0
9.9990195 -0.00012339531 0
9.9990198 -0.0021491815 0
9.9958569 -0.24178938 0
9.9990187 0.0021908879 0
9.9990195 -1.7618282e-07 0
9.9990195 2.7042097e-10 0
9.9990194 5.4526812e-07 0
9.9989823 7.9630345e-05 0
9.921836 -0.04569983 0
-9.999607 -0.002014733 0
-9.9105166 -7.4066178 0
9.2930067 0.62123486 0
-4.7466078 5.4152163 0
-6.837667 10.620679 0
-0.49357968 3.6842056 0
-1.9924311 7.5015214 0
4.7548813 2.8117104 0
-8.7668627 -4.9193184 0
9.0689803 -5.2903591 0
-8.8530937 3.8567284 0
-10.003064 -0.012593936 0
-10.00399 6.2487558e-05 0
-10.003974 1.9051973e-05 0
-10.003969 -2.0064769e-07 0
-10.003969 -5.5650281e-10 0
-10.003969 2.5795443e-05 0
-10.003969 0.00067867383 0
-10.003557 0.095886616 0
-10.003969 -0.00069404407 0
-10.003969 4.6859864e-08 0
-10.003969 -8.7937096e-11 0
-10.003969 1.9935514e-07 0
-10.003974 7.2403163e-06 0
-10.00399 -6.4386996e-05 0
-10.003121 0.013221436 0
-6.6607621 -7.9558582 0
6.4168963 8.1781485 0
-8.7661646 4.895499 0
4.7259074 -2.819113 0
-2.0009683 -7.4981642 0
-1.1258431 -6.324491 0
-1.9930359 -10.927208 0
8.7171116 4.7204809 0
-7.603442 10.766038 0
2.4495527 11.370135 0
10.000339 0.0078848727 0
10.000468 -4.0758669e-05 0
10.000486 -2.1141941e-05 0
10.000489 2.2648217e-10 0
10.000489 1.0399167e-10 0
10.000489 -2.190124e-05 0
10.000489 -0.00059653067 0
10.000068 -0.086078352 0
10.000489 0.00060824515 0
10.000489 -3.4117104e-08 0
10.000489 8.3287387e-11 0
10.000489 -1.5570973e-11 0
10.000486 -1.2249841e-06 0
10.000468 4.2265557e-05 0
10.000288 -0.0086697802 0
2.9940198 -10.723904 0
-7.6343595 -10.701025 0
8.7127105 -4.7187824 0
-1.9924511 10.927375 0
-1.1258495 6.3244942 0
-0.14895498 -4.3453384 0
2.5083939 -0.024923758 0
-9.630538 -1.2026946 0
-10.143955 0.11866654 0
-9.8444363 -1.8734352 0
-10.005777 0.00058265231 0
-10.005678 -1.8934108e-06 0
-10.005677 1.8313998e-06 0
-10.005677 -1.6577531e-11 0
-10.005677 -4.8522876e-13 0
-10.005677 1.7835984e-06 0
-10.005677 9.8580778e-05 0
-10.005659 0.02065699 0
-10.005677 -0.00010105406 0
-10.005677 7.0083289e-09 0
-10.005677 -1.0484334e-11 0
-10.005677 -5.1741131e-12 0
-10.005677 -5.5284256e-10 0
-10.005678 1.4363422e-06 0
-10.005777 -0.00044769024 0
-9.9972918 0.061126689 0
-10.147119 -0.14603223 0
-9.630318 1.2048771 0
2.5060363 0.026217557 0
-0.1457045 4.3722723 0
4.8370531 -9.9977527 0
10.615778 1.9512989 0
1.6708637 -3.3699026 0
-8.3011811 9.3985108 0
9.8426101 1.5958514 0
10.002571 -0.00062522901 0
10.002614 -1.107397e-06 0
10.002614 -1.4929061e-06 0
10.002614 -6.637539e-12 0
10.002614 -2.3168892e-11 0
10.002614 -1.4559752e-06 0
10.002614 -8.3383348e-05 0
10.002595 -0.017882842 0
10.002614 8.4980546e-05 0
10.002614 -4.6652908e-09 0
10.002614 7.911312e-12 0
10.002614 -9.5736223e-13 0
10.002614 1.5065768e-10 0
10.002614 1.5871306e-06 0
10.002568 0.00052549932 0
9.9924837 -0.009695676 0
-8.2136892 -9.4326792 0
1.6661666 3.3678893 0
10.669735 -1.9591955 0
4.8370532 9.9977527 0
-5.8402416 6.4279692 0
-9.8636435 -1.5725598 0
6.3517278 -7.0711522 0
0.45202183 -6.1370823 0
5.7216446 1.2093482 0
-10.00624 -0.00071860716 0
-10.006555 -2.4285524e-06 0
-10.006556 3.8549455e-11 0
-10.006556 9.53374e-13 0
-10.006556 1.7644102e-12 0
-10.006556 9.2869537e-10 0
-10.006556 5.5679461e-06 0
-10.006555 0.0023621939 0
-10.006556 -5.7373297e-06 0
-10.006556 7.5775829e-10 0
-10.006556 -7.450184e-13 0
-10.006556 -1.1687279e-13 0
-10.006556 -5.3925608e-11 0
-10.006555 2.2876398e-06 0
-10.006237 0.00073086999 0
5.8817264 -1.2355874 0
0.18749177 6.089395 0
6.2830746 7.135142 0
-9.8632952 1.5711642 0
-5.8402396 -6.4279429 0
-10.006958 0.018233767 0
-3.9332399 -8.2578661 0
-2.6702238 -1.3894625 0
-10.006279 0.20068439 0
-1.5704366 17.736648 0
10.004523 -0.001424062 0
10.004733 -2.683185e-06 0
10.004733 3.8485077e-11 0
10.004733 1.4965648e-13 0
10.004733 -4.8260409e-13 0
10.004733 -7.770996e-10 0
10.004733 -4.5709143e-06 0
10.004733 -0.0019806019 0
10.004733 4.6473732e-06 0
10.004733 -4.8033109e-10 0
10.004733 8.6479871e-13 0
10.004733 -8.2206345e-14 0
10.004733 -4.1860103e-11 0
10.004733 2.8074857e-06 0
10.004525 0.0014386202 0
-1.4734217 -17.724293 0
-10.00579 -0.20708486 0
-2.661528 1.3848074 0
-3.9332376 8.2578603 0
-10.006959 -0.018233427 0
-11.492259 -1.0817347 0
-11.100261 -5.6566518 0
-4.8812503 8.5930759 0
-8.172659 -1.6286662 0
-10.005819 -0.029479214 0
-10.006665 -6.3439778e-05 0
-10.006624 -8.7169004e-07 0
-10.006624 1.5793094e-11 0
-10.006624 3.8665481e-14 0
-10.006624 -1.0673776e-13 0
-10.006624 4.239388e-11 0
-10.006624 -1.1542042e-09 0
-10.006624 0.00011022439 0
-10.006624 -1.1685039e-09 0
-10.006624 3.151012e-11 0
-10.006624 2.9084104e-13 0
-10.006624 -3.7903629e-14 0
-10.006624 -1.4790208e-11 0
-10.006624 9.0057686e-07 0
-10.006666 6.5099745e-05 0
-10.005854 0.0018524552 0
-8.1605096 1.637207 0
-4.870806 -8.5979881 0
-11.103987 5.6554268 0
-11.492264 1.081739 0
-10.022541 -0.0089731595 0
6.0223272 -5.2943941 0
-0.85216446 15.805565 0
6.8758603 -1.4870253 0
10.00505 0.021088381 0
10.006278 8.0446452e-06 0
10.006293 -5.6224099e-07 0
10.006294 2.7155999e-12 0
10.006294 1.8280755e-14 0
10.006294 -1.3154498e-13 0
10.006294 -1.4467809e-11 0
10.006294 -2.9705049e-10 0
10.006294 -8.9881684e-05 0
10.006294 -1.799953e-10 0
10.006294 -8.322074e-12 0
10.006294 2.5915186e-13 0
10.006294 -1.7485213e-14 0
10.006294 -4.0647243e-12 0
10.006293 5.7630737e-07 0
10.006277 -8.2247053e-06 0
10.00508 0.0019573446 0
6.8865023 1.4830356 0
-0.87673662 -15.804507 0
6.023948 5.2952074 0
-10.022541 0.0089732701 0
-10.000267 0.0076903305 0
-10.061345 -0.013241604 0
1.2878306 -6.756465 0
-10.008307 0.081819713 0
-10.006135 -0.0012570656 0
-10.006095 -1.9155089e-06 0
-10.006095 -5.9985762e-10 0
-10.006095 1.4234959e-13 0
-10.006095 9.4298945e-15 0
-10.006095 -1.7508889e-13 0
-10.006095 1.1950176e-12 0
-10.006095 3.1340411e-11 0
-10.006095 -1.0275901e-09 0
-10.006095 2.1371537e-11 0
-10.006095 1.8644035e-12 0
-10.006095 3.457929e-13 0
-10.006095 -9.0413019e-15 0
-10.006095 -4.8875018e-13 0
-10.006095 -9.7786428e-11 0
-10.006095 1.9151023e-06 0
-10.006135 0.00017708635 0
-10.008334 -0.078779416 0
1.2763176 6.7595392 0
-10.061344 0.013297097 0
-10.000267 -0.00769074 0
-10.000043 0.0073299607 0
1.9689267 -2.4470668 0
-9.9929577 0.48846652 0
10.001479 -0.069102307 0
10.00692 0.00097289843 0
10.006957 -2.2989054e-07 0
10.006958 3.5573495e-10 0
10.006958 -6.3909512e-14 0
10.006958 5.2430753e-15 0
10.006958 -7.3789929e-14 0
10.006958 -1.3811452e-13 0
10.006958 2.15979e-11 0
10.006958 -1.4705345e-10 0
10.006958 3.0091642e-11 0
10.006958 1.3892476e-13 0
10.006958 1.4323664e-13 0
10.006958 -4.6586433e-15 0
10.006958 -7.7733703e-14 0
10.006958 -1.4292974e-11 0
10.006957 2.3879845e-07 0
10.00692 -9.2043448e-05 0
10.001504 0.066561893 0
-9.9929118 -0.48942332 0
1.9753008 2.4498744 0
-10.000043 -0.0073301008 0
-10.000007 0.0071986197 0
-10.000149 0.00028449438 0
-9.8152818 -2.1429426 0
-10.005232 0.0052591166 0
-10.005254 1.332535e-05 0
-10.005253 2.8484215e-09 0
-10.005253 -1.5389497e-11 0
-10.005253 -2.1463631e-13 0
-10.005253 5.0786934e-15 0
-10.005253 -1.1183307e-13 0
-10.005253 -2.1488642e-13 0
-10.005253 -1.9147555e-13 0
-10.005253 -1.0061705e-12 0
-10.005253 4.4894754e-13 0
-10.005253 2.1498153e-13 0
-10.005253 2.1943552e-13 0
-10.005253 -4.5310558e-15 0
-10.005253 -3.0317736e-15 0
-10.005253 3.2579117e-13 0
-10.005253 -2.7427089e-09 0
-10.005254 -1.3825492e-05 0
-10.005232 -0.0051338368 0
-9.8145427 2.1470876 0
-10.000149 -0.0002843311 0
-10.000007 -0.0071986271 0
-10.000001 0.0071900691 0
-10.000066 0.00027665763 0
9.8013347 1.7455151 0
10.00349 -0.0042277053 0
10.003505 -1.085735e-05 0
10.003507 -2.2841948e-09 0
10.003507 -6.1653548e-13 0
10.003507 -1.0426599e-13 0
10.003507 4.9409569e-15 0
10.003507 -5.5274321e-14 0
10.003507 -1.0209321e-13 0
10.003507 -1.4896018e-13 0
10.003507 -2.0835475e-13 0
10.003507 1.5289203e-13 0
10.003507 1.0212491e-13 0
10.003507 1.0643934e-13 0
10.003507 -4.4029797e-15 0
10.003507 6.0275771e-17 0
10.003507 6.0048207e-13 0
10.003507 1.7654907e-09 0
10.003505 1.1273445e-05 0
10.00349 0.0041254906 0
9.8005554 -1.7488829 0
-10.000066 -0.00027673725 0
-10.000001 -0.0071900695 0
-10 0.0071873343 0
-10.000016 2.7247561e-05 0
-10.000729 4.008354e-05 0
-10.000778 -1.5187461e-07 0
-10.000778 -2.4701991e-08 0
-10.000778 8.5414003e-11 0
-10.000778 2.4905502e-13 0
-10.000778 -2.0117668e-15 0
-10.000778 4.8111732e-15 0
-10.000778 -4.1399769e-15 0
-10.000778 -6.785915e-17 0
-10.000778 4.0134963e-15 0
-10.000778 -4.1159898e-15 0
-10.000778 -1.748085e-16 0
-10.000778 8.1265296e-17 0
-10.000778 4.2807687e-15 0
-10.000778 -4.2877081e-15 0
-10.000778 -4.1858927e-17 0
-10.000778 -2.5580839e-13 0
-10.000778 -8.5174642e-11 0
-10.000778 2.4827158e-08 0
-10.000778 1.5184809e-07 0
-10.000729 -4.012011e-05 0
-10.000016 -2.7245335e-05 0
-10 -0.0071873342 0
-10 0.0071867564 0
-10.000001 9.9045766e-06 0
-10.000003 1.0302798e-07 0
-10.000004 -2.3609708e-09 0
-10.000004 2.5316927e-11 0
-10.000004 1.6513181e-13 0
-10.000004 -1.6646153e-17 0
-10.000004 -2.0429735e-15 0
-10.000004 4.8042246e-15 0
-10.000004 -4.1353957e-15 0
-10.000004 -6.9210081e-17 0
-10.000004 4.0060631e-15 0
-10.000004 -4.1110311e-15 0
-10.000004 -1.7313283e-16 0
-10.000004 8.2103358e-17 0
-10.000004 4.2756262e-15 0
-10.000004 -4.2815803e-15 0
-10.000004 -1.4742234e-17 0
-10.000004 1.7021645e-16 0
-10.000004 -1.6441464e-13 0
-10.000004 -2.4867954e-11 0
-10.000004 2.355846e-09 0
-10.000003 -1.0305056e-07 0
-10.000001 -9.9045452e-06 0
-10 -0.0071867564 0
-10 0.0071867564 0
-10 9.4675274e-06 0
-10 -3.5973491e-07 0
-10 -1.1889242e-10 0
-10 3.435478e-12 0
-10 1.0496983e-15 0
-10 -1.5618611e-17 0
-10 -2.0429747e-15 0
-10 4.8042149e-15 0
-10 -4.1354177e-15 0
-10 -6.9252471e-17 0
-10 4.0059456e-15 0
-10 -4.1114812e-15 0
-10 -1.7296014e-16 0
-10 8.2137986e-17 0
-10 4.2756716e-15 0
-10 -4.2815027e-15 0
-10 -1.4778104e-17 0
-10 1.6953121e-16 0
-10 1.4589105e-15 0
-10 -3.4356387e-12 0
-10 1.1889045e-10 0
-10 3.597349e-07 0
-10 -9.4675274e-06 0
-10 -0.0071867564 0
-10 0.0071867564 0
-10 9.4675274e-06 0
-10 -3.5973488e-07 0
-10 -1.1879759e-10 0
-10 3.4349309e-12 0
-10 1.053572e-15 0
-10 -1.5621712e-17 0
-10 -2.0442375e-15 0
-10 4.8040646e-15 0
-10 -4.1356599e-15 0
-10 -7.0177846e-17 0
-10 4.0047826e-15 0
-10 -4.1128853e-15 0
-10 -1.7214716e-16 0
-10 8.3214022e-17 0
-10 4.2761069e-15 0
-10 -4.2814607e-15 0
-10 -1.4799569e-17 0
-10 1.6971659e-16 0
-10 1.4545403e-15 0
-10 -3.4350917e-12 0
-10 1.1879563e-10 0
-10 3.5973488e-07 0
-10 -9.4675274e-06 0
-10 -0.0071867564 0
-10 0.0071867564 0
-10 9.4675274e-06 0
-10 -3.5973488e-07 0
-10 -1.1879759e-10 0
-10 3.434931e-12 0
-10 1.0537052e-15 0
-10 -1.5631176e-17 0
-10 -2.0447936e-15 0
-10 4.8045175e-15 0
-10 -4.1356752e-15 0
-10 -6.9850071e-17 0
-10 4.005345e-15 0
-10 -4.1130708e-15 0
-10 -1.7164451e-16 0
-10 8.3213954e-17 0
-10 4.2760908e-15 0
-10 -4.2817853e-15 0
-10 -1.4786026e-17 0
-10 1.6996746e-16 0
-10 1.4539512e-15 0
-10 -3.4350938e-12 0
-10 1.1879563e-10 0
-10 3.5973488e-07 0
-10 -9.4675274e-06 0
-10 -0.0071867564 0
-10 0.0071867563 0
-10 9.4675267e-06 0
-10 -3.5973486e-07 0
-10 -1.1879693e-10 0
-10 3.4349168e-12 0
-10 1.0533089e-15 0
-10 -1.5562793e-17 0
-10 -2.0438531e-15 0
-10 4.8040956e-15 0
-10 -4.1353455e-15 0
-10 -6.9657217e-17 0
-10 4.0054946e-15 0
-10 -4.1122144e-15 0
-10 -1.7277049e-16 0
-10 8.2973481e-17 0
-10 4.2760025e-15 0
-10 -4.2821717e-15 0
-10 -1.4787597e-17 0
-10 1.7039678e-16 0
-10 1.4545667e-15 0
-10 -3.4350919e-12 0
-10 1.18795e-10 0
-10 3.5973486e-07 0
-10 -9.4675266e-06 0
-10 -0.0071867563 0
-9.9999996 0.0071867626 0
-9.9999996 9.4672818e-06 0
-9.9999996 -3.5974771e-07 0
-9.9999996 -1.1877025e-10 0
-9.9999996 3.4350017e-12 0
-9.9999996 1.0530147e-15 0
-9.9999996 -1.5428087e-17 0
-9.9999996 -2.0430375e-15 0
-9.9999996 4.8040712e-15 0
-9.9999996 -4.1350368e-15 0
-9.9999996 -6.9050628e-17 0
-9.9999996 4.0063429e-15 0
-9.9999996 -4.1104705e-15 0
-9.9999996 -1.7407249e-16 0
-9.9999996 8.2356564e-17 0
-9.9999996 4.275242e-15 0
-9.9999996 -4.2821066e-15 0
-9.9999996 -1.4787447e-17 0
-9.9999996 1.7032507e-16 0
-9.9999996 1.4551806e-15 0
-9.9999996 -3.4351857e-12 0
-9.9999996 1.1876797e-10 0
-9.9999996 3.5974771e-07 0
-9.9999996 -9.4672818e-06 0
-9.9999996 -0.0071867626 0
-10.000013 0.0071878254 0
-10.00001 9.591262e-06 0
-10.000009 -3.6017969e-07 0
-10.000009 -1.2003092e-10 0
-10.000009 3.4394344e-12 0
-10.000009 1.0557726e-15 0
-10.000009 -1.5732444e-17 0
-10.000009 -2.0451796e-15 0
-10.000009 4.8047888e-15 0
-10.000009 -4.136141e-15 0
-10.000009 -7.0405892e-17 0
-10.000009 4.0048492e-15 0
-10.000009 -4.1147388e-15 0
-10.000009 -1.7124459e-16 0
-10.000009 8.3789635e-17 0
-10.000009 4.2772992e-15 0
-10.000009 -4.2829437e-15 0
-10.000009 -1.4788358e-17 0
-10.000009 1.70725e-16 0
-10.000009 1.4479558e-15 0
-10.000009 -3.4396289e-12 0
-10.000009 1.2002873e-10 0
-10.000009 3.6017969e-07 0
-10.00001 -9.591262e-06 0
-10.000013 -0.0071878254 0
-10.006791 0.0067906273 0
-10.007188 1.2601072e-05 0
-10.007187 -3.5108552e-07 0
-10.007187 -1.741227e-10 0
-10.007187 3.3786812e-12 0
-10.007187 1.3598036e-15 0
-10.007187 -1.6057397e-17 0
-10.007187 -1.9967591e-15 0
-10.007187 4.682578e-15 0
-10.007187 -4.0322827e-15 0
-10.007187 -7.174382e-17 0
-10.007187 3.8990836e-15 0
-10.007187 -4.0173299e-15 0
-10.007187 -1.6273083e-16 0
-10.007187 8.5522009e-17 0
-10.007187 4.1717406e-15 0
-10.007187 -4.1750045e-15 0
-10.007187 -1.4788108e-17 0
-10.007187 1.6747249e-16 0
-10.007187 1.096588e-15 0
-10.007187 -3.3783609e-12 0
-10.007187 1.7411871e-10 0
-10.007187 3.5108552e-07 0
-10.007188 -1.2601072e-05 0
-10.006791 -0.0067906273 0
-3.5352611 7.512951 0
5.6415223 -8.8453266 0
-7.6335976 1.6120966 0
-11.347285 -1.1589547 0
-7.7706186 4.4620132 0
10.437835 1.2731977 0
9.9970595 0.009848696 0
9.9997721 -0.00045048428 0
9.9997809 2.5030593e-08 0
9.9997809 2.6797686e-08 0
9.9997809 -0.00045062362 0
9.9997807 -0.0045776604 0
9.9908878 -0.42616038 0
9.999779 0.0046626195 0
9.9997809 -3.8859244e-07 0
9.9997809 1.3281093e-09 0
9.9997809 -7.8081009e-10 0
9.9997725 -8.0944862e-06 0
9.9970518 -0.0098944723 0
2.9093033 -8.7650428 0
-5.8104245 6.3145991 0
-8.3528684 -2.3990708 0
-7.6107602 -1.8063895 0
6.0166218 8.6821403 0
-3.5346272 -7.5131671 0
2.630998 -13.726701 0
-8.1323434 -2.595792 0
5.4309495 -9.7899344 0
-10.109602 1.6814774 0
-5.0371132 -6.6058025 0
2.4705781 -4.8706158 0
-9.9997214 -0.014859677 0
-9.998752 0.00040448527 0
-9.9987368 -1.1858703e-07 0
-9.9987367 -2.6358106e-08 0
-9.9987367 0.00044854036 0
-9.9987347 0.0044798166 0
-9.9898071 0.4172354 0
-9.9987365 -0.0045608388 0
-9.9987367 3.4277713e-07 0
-9.9987367 -1.3219554e-09 0
-9.9987368 9.4987981e-08 0
-9.9987518 5.0965731e-05 0
-9.999614 0.014810903 0
2.5316083 4.8613353 0
-11.103444 4.2796274 0
-10.106945 -1.4119346 0
5.4446705 9.7792384 0
-8.1323356 2.5957907 0
2.6309981 13.726701 0
-9.3133062 0.071391022 0
3.5614673 4.1602086 0
-1.1935938 3.4247303 0
-5.7463715 -2.8652056 0
10.00002 -0.1084687 0
-8.3614767 10.959079 0
-1.7410806 18.382546 0
10.001764 -0.0005037344 0
10.001771 -8.2260652e-07 0
10.001772 1.7907813e-08 0
10.001772 -0.00031989358 0
10.001772 -0.0027665595 0
9.9983674 -0.26984159 0
10.001771 0.0028165507 0
10.001772 -2.2969993e-07 0
10.001772 5.6915566e-10 0
10.001771 8.703919e-07 0
10.001764 0.00017914898 0
-1.8107785 -18.369511 0
3.3185953 -10.601358 0
10.000336 0.26784775 0
-7.505764 -0.91909303 0
-4.3332426 0.54435008 0
3.535986 -4.1514625 0