# vtk DataFile Version 4.0
hesp visualization file
ASCII
DATASET UNSTRUCTURED_GRID
POINTS 32 double
1.2520079 0.66705918 4
0.3745601 2.1821008 4
0.3745601 3.4302095 4
1.2520079 4.9452511 4
1.8227211 -1.1312207 4
2.2231679 1.7808884 4
2.2231679 3.8314218 4
1.8227211 6.743531 4
6.0882217 -3.1688541 4
3.9018043 0.081620567 4
3.9018043 5.5306897 4
6.0882217 8.7811643 4
8.7447791 -3.6270084 4
9.3897385 1.4209669 4
9.3897385 4.1913433 4
8.7447791 9.2393186 4
12.867531 -3.6270084 4
12.222572 1.4209669 4
12.222572 4.1913433 4
12.867531 9.2393186 4
15.524089 -3.1688541 4
17.710506 0.081620567 4
17.710506 5.5306897 4
15.524089 8.7811643 4
19.789589 -1.1312207 4
19.389142 1.7808884 4
19.389142 3.8314218 4
19.789589 6.743531 4
20.360302 0.66705918 4
21.23775 2.1821008 4
21.23775 3.4302095 4
20.360302 4.9452511 4
CELLS 0 0
CELL_TYPES 0
POINT_DATA 32
SCALARS m double
LOOKUP_TABLE default
1
1
1
1
1
1
1
1
1
1
1
1
1
1
1
1
1
1
1
1
1
1
1
1
1
1
1
1
1
1
1
1
VECTORS v double
-10.635784 -1.3415667 0
-11.989732 -0.28014552 0
-11.989732 0.28014552 0
-10.635784 1.3415667 0
-12.472053 -4.5852785 0
-9.6461875 -0.16399219 0
-9.6461875 0.16399219 0
-12.472053 4.5852785 0
-6.2426897 -8.7276753 0
-8.2987236 -3.1874052 0
-8.2987236 3.1874052 0
-6.2426897 8.7276753 0
-3.0703443 -7.7759071 0
-1.4059069 -0.91840749 0
-1.4059069 0.91840749 0
-3.0703443 7.7759071 0
3.0703443 -7.7759071 0
1.4059069 -0.91840749 0
1.4059069 0.91840749 0
3.0703443 7.7759071 0
6.2426897 -8.7276753 0
8.2987236 -3.1874052 0
8.2987236 3.1874052 0
6.2426897 8.7276753 0
12.472053 -4.5852785 0
9.6461875 -0.16399219 0
9.6461875 0.16399219 0
12.472053 4.5852785 0
10.635784 -1.3415667 0
11.989732 -0.28014552 0
11.989732 0.28014552 0
10.635784 1.3415667 0
