# vtk DataFile Version 4.0
hesp visualization file
ASCII
DATASET UNSTRUCTURED_GRID
POINTS 1250 double
31.40589 1.3841331 4
30.475523 2.4631471 4
30.508809 3.3672943 4
30.508809 4.489848 4
30.508808 5.6123101 4
30.508808 6.7347723 4
30.508808 7.8572343 4
30.508808 8.9796964 4
30.508808 10.102158 4
30.508808 11.22462 4
30.508808 12.347083 4
30.508808 13.469545 4
30.508808 14.592007 4
30.508808 15.714469 4
30.508808 16.836931 4
30.508808 17.959393 4
30.508808 19.081855 4
30.508808 20.204317 4
30.508808 21.326779 4
30.508808 22.449241 4
30.508808 23.571703 4
30.508809 24.694165 4
30.508809 25.816719 4
30.475523 26.720866 4
31.40589 27.79988 4
31.580419 -0.27045283 4
30.944763 2.4124546 4
30.818009 3.3678173 4
30.817996 4.4898486 4
30.817996 5.6123103 4
30.817996 6.7347723 4
30.817996 7.8572343 4
30.817996 8.9796964 4
30.817996 10.102158 4
30.817996 11.22462 4
30.817996 12.347083 4
30.817996 13.469545 4
30.817996 14.592007 4
30.817996 15.714469 4
30.817996 16.836931 4
30.817996 17.959393 4
30.817996 19.081855 4
30.817996 20.204317 4
30.817996 21.326779 4
30.817996 22.449241 4
30.817996 23.571703 4
30.817996 24.694165 4
30.818009 25.816196 4
30.944763 26.771559 4
31.580419 29.454466 4
31.097765 1.6467924 4
31.578194 2.9040083 4
31.835643 3.3667942 4
31.83567 4.4898475 4
31.83567 5.6123102 4
31.83567 6.7347723 4
31.83567 7.8572343 4
31.83567 8.9796964 4
31.83567 10.102158 4
31.83567 11.22462 4
31.83567 12.347083 4
31.83567 13.469545 4
31.83567 14.592007 4
31.83567 15.714469 4
31.83567 16.836931 4
31.83567 17.959393 4
31.83567 19.081855 4
31.83567 20.204317 4
31.83567 21.326779 4
31.83567 22.449241 4
31.83567 23.571703 4
31.83567 24.694166 4
31.835643 25.817219 4
31.578195 26.280005 4
31.097764 27.537221 4
31.825927 0.075463218 4
32.889423 1.9013594 4
32.144686 3.3676923 4
32.144689 4.4898486 4
32.144689 5.6123103 4
32.144689 6.7347723 4
32.144689 7.8572343 4
32.144689 8.9796964 4
32.144689 10.102158 4
32.144689 11.22462 4
32.144689 12.347083 4
32.144689 13.469545 4
32.144689 14.592007 4
32.144689 15.714469 4
32.144689 16.836931 4
32.144689 17.959393 4
32.144689 19.081855 4
32.144689 20.204317 4
32.144689 21.326779 4
32.144689 22.449241 4
32.144689 23.571703 4
32.144689 24.694165 4
32.144686 25.816321 4
32.889423 27.282654 4
31.825927 29.10855 4
33.328425 1.9343201 4
32.363772 2.3945442 4
33.162492 3.3671284 4
33.162495 4.4898479 4
33.162495 5.6123102 4
33.162495 6.7347723 4
33.162495 7.8572343 4
33.162495 8.9796964 4
33.162495 10.102158 4
33.162495 11.22462 4
33.162495 12.347083 4
33.162495 13.469545 4
33.162495 14.592007 4
33.162495 15.714469 4
33.162495 16.836931 4
33.162495 17.959393 4
33.162495 19.081855 4
33.162495 20.204317 4
33.162495 21.326779 4
33.162495 22.449241 4
33.162495 23.571703 4
33.162495 24.694165 4
33.162492 25.816885 4
32.363772 26.789469 4
33.328425 27.249693 4
32.557993 0.97213913 4
33.821113 2.0615541 4
33.47127 3.3674515 4
33.471269 4.4898483 4
33.471269 5.6123102 4
33.471269 6.7347723 4
33.471269 7.8572343 4
33.471269 8.9796964 4
33.471269 10.102158 4
33.471269 11.22462 4
33.471269 12.347083 4
33.471269 13.469545 4
33.471269 14.592007 4
33.471269 15.714469 4
33.471269 16.836931 4
33.471269 17.959393 4
33.471269 19.081855 4
33.471269 20.204317 4
33.471269 21.326779 4
33.471269 22.449241 4
33.471269 23.571703 4
33.471269 24.694165 4
33.47127 25.816562 4
33.821113 27.122459 4
32.557993 28.211874 4
33.760375 1.5721943 4
34.398966 2.4685829 4
34.489177 3.367337 4
34.489177 4.4898482 4
34.489177 5.6123102 4
34.489177 6.7347723 4
34.489177 7.8572343 4
34.489177 8.9796964 4
34.489177 10.102158 4
34.489177 11.22462 4
34.489177 12.347083 4
34.489177 13.469545 4
34.489177 14.592007 4
34.489177 15.714469 4
34.489177 16.836931 4
34.489177 17.959393 4
34.489177 19.081855 4
34.489177 20.204317 4
34.489177 21.326779 4
34.489177 22.449241 4
34.489177 23.571703 4
34.489177 24.694165 4
34.489177 25.816676 4
34.398966 26.71543 4
33.760375 27.611819 4
35.375103 0.58416431 4
34.798548 2.2178714 4
34.797785 3.3673899 4
34.797785 4.4898482 4
34.797785 5.6123102 4
34.797785 6.7347723 4
34.797785 7.8572343 4
34.797785 8.9796964 4
34.797785 10.102158 4
34.797785 11.22462 4
34.797785 12.347083 4
34.797785 13.469545 4
34.797785 14.592007 4
34.797785 15.714469 4
34.797785 16.836931 4
34.797785 17.959393 4
34.797785 19.081855 4
34.797785 20.204317 4
34.797785 21.326779 4
34.797785 22.449241 4
34.797785 23.571703 4
34.797785 24.694165 4
34.797785 25.816623 4
34.798548 26.966142 4
35.375103 28.599849 4
35.145783 1.3334151 4
35.814578 2.2631826 4
35.81519 3.3673836 4
35.81519 4.4898482 4
35.81519 5.6123102 4
35.81519 6.7347723 4
35.81519 7.8572343 4
35.81519 8.9796964 4
35.81519 10.102158 4
35.81519 11.22462 4
35.81519 12.347083 4
35.81519 13.469545 4
35.81519 14.592007 4
35.81519 15.714469 4
35.81519 16.836931 4
35.81519 17.959393 4
35.81519 19.081855 4
35.81519 20.204317 4
35.81519 21.326779 4
35.81519 22.449241 4
35.81519 23.571703 4
35.81519 24.694165 4
35.81519 25.81663 4
35.814578 26.920831 4
35.145783 27.850598 4
36.124612 1.1236106 4
36.124305 2.2449411 4
36.124303 3.3673861 4
36.124303 4.4898482 4
36.124303 5.6123102 4
36.124303 6.7347723 4
36.124303 7.8572343 4
36.124303 8.9796964 4
36.124303 10.102158 4
36.124303 11.22462 4
36.124303 12.347083 4
36.124303 13.469545 4
36.124303 14.592007 4
36.124303 15.714469 4
36.124303 16.836931 4
36.124303 17.959393 4
36.124303 19.081855 4
36.124303 20.204317 4
36.124303 21.326779 4
36.124303 22.449241 4
36.124303 23.571703 4
36.124303 24.694165 4
36.124303 25.816627 4
36.124305 26.939072 4
36.124612 28.060403 4
37.247082 1.1236108 4
37.247082 2.2449308 4
37.247082 3.3673861 4
37.247082 4.4898482 4
37.247082 5.6123102 4
37.247082 6.7347723 4
37.247082 7.8572343 4
37.247082 8.9796964 4
37.247082 10.102158 4
37.247082 11.22462 4
37.247082 12.347083 4
37.247082 13.469545 4
37.247082 14.592007 4
37.247082 15.714469 4
37.247082 16.836931 4
37.247082 17.959393 4
37.247082 19.081855 4
37.247082 20.204317 4
37.247082 21.326779 4
37.247082 22.449241 4
37.247082 23.571703 4
37.247082 24.694165 4
37.247082 25.816627 4
37.247082 26.939082 4
37.247082 28.060402 4
38.369545 1.1236107 4
38.369545 2.2449308 4
38.369545 3.3673861 4
38.369545 4.4898482 4
38.369545 5.6123102 4
38.369545 6.7347723 4
38.369545 7.8572343 4
38.369545 8.9796964 4
38.369545 10.102158 4
38.369545 11.22462 4
38.369545 12.347083 4
38.369545 13.469545 4
38.369545 14.592007 4
38.369545 15.714469 4
38.369545 16.836931 4
38.369545 17.959393 4
38.369545 19.081855 4
38.369545 20.204317 4
38.369545 21.326779 4
38.369545 22.449241 4
38.369545 23.571703 4
38.369545 24.694165 4
38.369545 25.816627 4
38.369545 26.939082 4
38.369545 28.060403 4
39.492007 1.1236107 4
39.492007 2.2449308 4
39.492007 3.3673861 4
39.492007 4.4898482 4
39.492007 5.6123102 4
39.492007 6.7347723 4
39.492007 7.8572343 4
39.492007 8.9796964 4
39.492007 10.102158 4
39.492007 11.22462 4
39.492007 12.347083 4
39.492007 13.469545 4
39.492007 14.592007 4
39.492007 15.714469 4
39.492007 16.836931 4
39.492007 17.959393 4
39.492007 19.081855 4
39.492007 20.204317 4
39.492007 21.326779 4
39.492007 22.449241 4
39.492007 23.571703 4
39.492007 24.694165 4
39.492007 25.816627 4
39.492007 26.939082 4
39.492007 28.060403 4
40.614469 1.1236107 4
40.614469 2.2449308 4
40.614469 3.3673861 4
40.614469 4.4898482 4
40.614469 5.6123102 4
40.614469 6.7347723 4
40.614469 7.8572343 4
40.614469 8.9796964 4
40.614469 10.102158 4
40.614469 11.22462 4
40.614469 12.347083 4
40.614469 13.469545 4
40.614469 14.592007 4
40.614469 15.714469 4
40.614469 16.836931 4
40.614469 17.959393 4
40.614469 19.081855 4
40.614469 20.204317 4
40.614469 21.326779 4
40.614469 22.449241 4
40.614469 23.571703 4
40.614469 24.694165 4
40.614469 25.816627 4
40.614469 26.939082 4
40.614469 28.060403 4
41.736931 1.1236107 4
41.736931 2.2449308 4
41.736931 3.3673861 4
41.736931 4.4898482 4
41.736931 5.6123102 4
41.736931 6.7347723 4
41.736931 7.8572343 4
41.736931 8.9796964 4
41.736931 10.102158 4
41.736931 11.22462 4
41.736931 12.347083 4
41.736931 13.469545 4
41.736931 14.592007 4
41.736931 15.714469 4
41.736931 16.836931 4
41.736931 17.959393 4
41.736931 19.081855 4
41.736931 20.204317 4
41.736931 21.326779 4
41.736931 22.449241 4
41.736931 23.571703 4
41.736931 24.694165 4
41.736931 25.816627 4
41.736931 26.939082 4
41.736931 28.060403 4
42.859393 1.1236107 4
42.859393 2.2449308 4
42.859393 3.3673861 4
42.859393 4.4898482 4
42.859393 5.6123102 4
42.859393 6.7347723 4
42.859393 7.8572343 4
42.859393 8.9796964 4
42.859393 10.102158 4
42.859393 11.22462 4
42.859393 12.347083 4
42.859393 13.469545 4
42.859393 14.592007 4
42.859393 15.714469 4
42.859393 16.836931 4
42.859393 17.959393 4
42.859393 19.081855 4
42.859393 20.204317 4
42.859393 21.326779 4
42.859393 22.449241 4
42.859393 23.571703 4
42.859393 24.694165 4
42.859393 25.816627 4
42.859393 26.939082 4
42.859393 28.060403 4
43.981855 1.1236107 4
43.981855 2.2449308 4
43.981855 3.3673861 4
43.981855 4.4898482 4
43.981855 5.6123102 4
43.981855 6.7347723 4
43.981855 7.8572343 4
43.981855 8.9796964 4
43.981855 10.102158 4
43.981855 11.22462 4
43.981855 12.347083 4
43.981855 13.469545 4
43.981855 14.592007 4
43.981855 15.714469 4
43.981855 16.836931 4
43.981855 17.959393 4
43.981855 19.081855 4
43.981855 20.204317 4
43.981855 21.326779 4
43.981855 22.449241 4
43.981855 23.571703 4
43.981855 24.694165 4
43.981855 25.816627 4
43.981855 26.939082 4
43.981855 28.060403 4
45.104317 1.1236107 4
45.104317 2.2449308 4
45.104317 3.3673861 4
45.104317 4.4898482 4
45.104317 5.6123102 4
45.104317 6.7347723 4
45.104317 7.8572343 4
45.104317 8.9796964 4
45.104317 10.102158 4
45.104317 11.22462 4
45.104317 12.347083 4
45.104317 13.469545 4
45.104317 14.592007 4
45.104317 15.714469 4
45.104317 16.836931 4
45.104317 17.959393 4
45.104317 19.081855 4
45.104317 20.204317 4
45.104317 21.326779 4
45.104317 22.449241 4
45.104317 23.571703 4
45.104317 24.694165 4
45.104317 25.816627 4
45.104317 26.939082 4
45.104317 28.060403 4
46.226779 1.1236107 4
46.226779 2.2449308 4
[...]
POINT_DATA 1250
SCALARS m double
LOOKUP_TABLE default
1
1
1
1
1
1
1
1
1
1
1
1
1
1
1
1
1
1
1
1
1
1
1
1
1
1
1
1
1
1
1
1
1
1
1
1
1
1
1
1
1
1
1
1
1
1
1
1
1
1
1
1
1
1
1
1
1
1
1
1
1
1
1
1
1
1
1
1
1
1
1
1
1
1
1
1
1
1
1
1
1
1
1
1
1
1
1
1
1
1
1
1
1
1
1
1
1
1
1
1
1
1
1
1
1
1
1
1
1
1
1
1
1
1
1
1
1
1
1
1
1
1
1
1
1
1
1
1
1
1
1
1
1
1
1
1
1
1
1
1
1
1
1
1
1
1
1
1
1
1
1
1
1
1
1
1
1
1
1
1
1
1
1
1
1
1
1
1
1
1
1
1
1
1
1
1
1
1
1
1
1
1
1
1
1
1
1
1
1
1
1
1
1
1
1
1
1
1
1
1
1
1
1
1
1
1
1
1
1
1
1
1
1
1
1
1
1
1
1
1
1
1
1
1
1
1
1
1
1
1
1
1
1
1
1
1
1
1
1
1
1
1
1
1
1
1
1
1
1
1
1
1
1
1
1
1
1
1
1
1
1
1
1
1
1
1
1
1
1
1
1
1
1
1
1
1
1
1
1
1
1
1
1
1
1
1
1
1
1
1
1
1
1
1
1
1
1
1
1
1
1
1
1
1
1
1
1
1
1
1
1
1
1
1
1
1
1
1
1
1
1
1
1
1
1
1
1
1
1
1
1
1
1
1
1
1
1
1
1
1
1
1
1
1
1
1
1
1
1
1
1
1
1
1
1
1
1
1
1
1
1
1
1
1
1
1
1
1
1
1
1
1
1
1
1
1
1
1
1
1
1
1
1
1
1
1
1
1
1
1
1
1
1
1
1
1
1
1
1
1
1
1
1
1
1
1
1
1
1
1
1
1
1
1
1
1
1
1
1
1
1
1
1
1
1
1
1
1
1
1
1
1
1
1
1
1
1
1
1
1
1
1
1
1
1
1
1
1
1
1
1
1
1
1
1
1
1
1
1
1
1
1
1
1
1
1
1
1
1
1
1
1
1
1
1
1
1
1
1
1
1
1
1
1
1
1
1
1
1
1
1
1
1
1
1
1
1
1
1
1
1
1
1
1
1
1
1
1
1
1
1
1
1
1
1
1
1
1
1
1
1
1
1
1
1
1
1
1
1
1
1
1
1
1
1
1
1
1
1
1
1
1
1
1
1
1
1
1
1
1
1
1
1
1
1
1
1
1
1
1
1
1
1
1
1
1
1
1
1
1
1
1
1
1
1
1
1
1
1
1
1
1
1
1
1
1
1
1
1
1
1
1
1
1
1
1
1
1
1
1
1
1
1
1
1
1
1
1
1
1
1
1
1
1
1
1
1
1
1
1
1
1
1
1
1
1
1
1
1
1
1
1
1
1
1
1
1
1
1
1
1
1
1
1
1
1
1
1
1
1
1
1
1
1
1
1
1
1
1
1
1
1
1
1
1
1
1
1
1
1
1
1
1
1
1
1
1
1
1
1
1
1
1
1
1
1
1
1
1
1
1
1
1
1
1
1
1
1
1
1
1
1
1
1
1
1
1
1
1
1
1
1
1
1
1
1
1
1
1
1
1
1
1
1
1
1
1
1
1
1
1
1
1
1
1
1
1
1
1
1
1
1
1
1
1
1
1
1
1
1
1
1
1
1
1
1
1
1
1
1
1
1
1
1
1
1
1
1
1
1
1
1
1
1
1
1
1
1
1
1
1
1
1
1
1
1
1
1
1
1
1
1
1
1
1
1
1
1
1
1
1
1
1
1
1
1
1
1
1
1
1
1
1
1
1
1
1
1
1
1
1
1
1
1
1
1
1
1
1
1
1
1
1
1
1
1
1
1
1
1
1
1
1
1
1
1
1
1
1
1
1
1
1
1
1
1
1
1
1
1
1
1
1
1
1
1
1
1
1
1
1
1
1
1
1
1
1
1
1
1
1
1
1
1
1
1
1
1
1
1
1
1
1
1
1
1
1
1
1
1
1
1
1
1
1
1
1
1
1
1
1
1
1
1
1
1
1
1
1
1
1
1
1
1
1
1
1
1
1
1
1
1
1
1
1
1
1
1
1
1
1
1
1
1
1
1
1
1
1
1
1
1
1
1
1
1
1
1
1
1
1
1
1
1
1
1
1
1
1
1
1
1
1
1
1
1
1
1
1
1
1
1
1
1
1
1
1
1
1
1
1
1
1
1
1
1
1
1
1
1
1
1
1
1
1
1
1
1
1
1
1
1
1
1
1
1
1
1
1
1
1
1
1
1
1
1
1
1
1
1
1
1
1
1
1
1
1
1
1
1
1
1
1
1
1
1
1
1
1
1
1
1
1
1
1
1
1
1
1
1
1
1
1
1
1
1
1
1
1
1
1
1
1
1
1
1
1
1
1
1
1
1
1
1
1
1
1
1
1
1
1
1
1
1
1
1
1
1
1
1
1
1
1
1
1
1
1
1
1
1
1
1
1
1
1
1
1
1
1
1
1
1
1
1
1
1
1
1
1
1
1
1
1
1
1
1
1
1
1
1
1
1
1
1
1
1
1
1
1
1
1
1
1
1
1
1
1
1
1
1
1
1
1
1
1
1
1
1
1
1
1
1
1
1
1
1
1
1
1
1
1
1
1
1
1
1
1
1
1
1
1
1
1
1
1
1
1
1
1
1
1
1
1
1
1
1
1
1
1
1
1
1
1
1
1
1
1
1
1
1
1
1
1
1
1
1
1
1
1
1
1
1
1
1
1
1
1
1
1
1
1
1
1
1
1
1
1
1
1
1
VECTORS v double
9.8154478 1.635436 0
9.6374739 2.4900389 0
10.023254 -0.0018942192 0
10.023194 -8.4086128e-06 0
10.023192 -2.215734e-06 0
10.023192 1.2783437e-10 0
10.023192 -2.3906517e-13 0
10.023192 4.5413119e-11 0
10.023192 3.5401088e-15 0
10.023192 -3.7733502e-13 0
10.023192 4.4976451e-11 0
10.023192 5.3855519e-10 0
10.023192 4.3061087e-08 0
10.023192 -5.4235316e-10 0
10.023192 7.635917e-13 0
10.023192 7.4944573e-13 0
10.023192 -3.8960812e-15 0
10.023192 -2.007653e-17 0
10.023192 1.8011786e-16 0
10.023192 -1.3380182e-12 0
10.023192 1.7212901e-10 0
10.023194 8.2194316e-06 0
10.023254 0.0018951384 0
9.637474 -2.4900379 0
9.8154479 -1.6354358 0
-2.6549709 -13.76528 0
-8.1985761 1.8618417 0
-10.021187 0.0085261502 0
-10.022053 2.2787324e-06 0
-10.022054 1.4112404e-06 0
-10.022054 -6.4034317e-11 0
-10.022054 -5.7523738e-14 0
-10.022054 -7.5278211e-13 0
-10.022054 3.6487696e-15 0
-10.022054 -3.9263634e-13 0
-10.022054 -7.5393139e-13 0
-10.022054 -1.7277906e-10 0
-10.022054 -2.3613145e-08 0
-10.022054 1.740293e-10 0
-10.022054 7.7233918e-13 0
-10.022054 7.8054779e-13 0
-10.022054 -3.7757164e-15 0
-10.022054 -1.9177197e-17 0
-10.022054 1.0678977e-16 0
-10.022054 -1.1363789e-12 0
-10.022054 9.7324652e-10 0
-10.022053 -2.3629547e-06 0
-10.021187 -0.0085346414 0
-8.1985756 -1.8618395 0
-2.6549709 13.76528 0
-0.55625391 -5.1836479 0
5.5493094 13.250359 0
10.019573 -0.021756323 0
10.023898 -2.2934324e-05 0
10.023899 -1.2963929e-06 0
10.023899 6.5186573e-11 0
10.023899 -1.6619289e-13 0
10.023899 -4.8690769e-13 0
10.023899 4.0819215e-15 0
10.023899 -2.4613912e-13 0
10.023899 -4.8762012e-13 0
10.023899 1.4054817e-10 0
10.023899 2.0947032e-08 0
10.023899 -1.4195861e-10 0
10.023899 4.8855904e-13 0
10.023899 4.8884524e-13 0
10.023899 -3.647089e-15 0
10.023899 -1.7651151e-17 0
10.023899 2.1130877e-16 0
10.023899 -7.5859865e-13 0
10.023899 -1.1636089e-09 0
10.023898 2.3030414e-05 0
10.019573 0.021765025 0
5.549311 -13.25036 0
-0.55625625 5.1836462 0
-0.32044121 -3.7927124 0
9.0730224 -4.4272697 0
-10.021489 0.0059387349 0
-10.020841 3.9022935e-06 0
-10.020838 3.7081039e-07 0
-10.020838 -2.6077445e-12 0
-10.020838 -3.7328447e-14 0
-10.020838 -5.2299842e-13 0
-10.020838 3.948224e-15 0
-10.020838 -2.6406737e-13 0
-10.020838 -5.2519099e-13 0
-10.020838 -9.3322937e-13 0
-10.020838 -3.3772883e-09 0
-10.020838 6.0819374e-13 0
-10.020838 5.2117638e-13 0
-10.020838 5.2482738e-13 0
-10.020838 -3.5161876e-15 0
-10.020838 -1.6361878e-17 0
-10.020838 2.3527969e-16 0
-10.020838 -1.4587101e-12 0
-10.020838 -8.0215994e-10 0
-10.020841 -4.0154003e-06 0
-10.021489 -0.0059449058 0
9.0730216 4.4272722 0
-0.32044112 3.7927124 0
-10.636677 -0.96975397 0
-9.645577 2.2065613 0
10.023999 -0.0059255509 0
10.024093 -7.4181849e-06 0
10.024095 -3.18654e-07 0
10.024095 1.0506454e-11 0
10.024095 -1.0220778e-13 0
10.024095 -4.2407579e-13 0
10.024095 3.8036187e-15 0
10.024095 -2.1451326e-13 0
10.024095 -4.2245789e-13 0
10.024095 -6.1544275e-13 0
10.024095 2.7631739e-09 0
10.024095 5.7345959e-13 0
10.024095 4.2271215e-13 0
10.024095 4.2586028e-13 0
10.024095 -3.3866628e-15 0
10.024095 -1.5475723e-17 0
10.024095 1.1023811e-16 0
10.024095 -3.7251128e-13 0
10.024095 1.7187452e-11 0
10.024093 7.5244406e-06 0
10.023999 0.0059312077 0
-9.6455759 -2.2065643 0
-10.636676 0.96975841 0
-9.9711585 -1.0518953 0
9.0024853 1.5421529 0
-10.019966 0.0014428681 0
-10.020033 1.531997e-06 0
-10.020033 3.3617096e-08 0
-10.020033 3.3895026e-12 0
-10.020033 -2.6148594e-14 0
-10.020033 -2.3671214e-13 0
-10.020033 3.6587132e-15 0
-10.020033 -1.2073979e-13 0
-10.020033 -2.3555981e-13 0
-10.020033 -3.8577846e-13 0
-10.020033 6.5370859e-13 0
-10.020033 3.1615496e-13 0
-10.020033 2.3493957e-13 0
-10.020033 2.3843624e-13 0
-10.020033 -3.2579337e-15 0
-10.020033 -1.4348631e-17 0
-10.020033 1.0778226e-16 0
-10.020033 -9.6556191e-13 0
-10.020033 -7.7754573e-10 0
-10.020033 -1.5693299e-06 0
-10.019966 -0.0014444259 0
9.0024841 -1.5421586 0
-9.9711585 1.0518953 0
-9.0654384 4.7717278 0
8.0220233 5.415167 0
10.023952 -0.00146809 0
10.023988 -6.5394319e-07 0
10.023988 -2.7091563e-08 0
10.023988 5.5379117e-13 0
10.023988 -3.6574261e-14 0
10.023988 -1.4293544e-13 0
10.023988 3.5115313e-15 0
10.023988 -7.3748507e-14 0
10.023988 -1.4149974e-13 0
10.023988 -2.1019577e-13 0
10.023988 -2.8227422e-13 0
10.023988 2.1108383e-13 0
10.023988 1.4150856e-13 0
10.023988 1.4457472e-13 0
10.023988 -3.1277908e-15 0
10.023988 -1.3193711e-17 0
10.023988 1.1560616e-16 0
10.023988 3.7748304e-15 0
10.023988 1.9679158e-10 0
10.023988 6.8630041e-07 0
10.023952 0.0014694265 0
8.0220242 -5.415166 0
-9.0654384 -4.7717278 0
4.836407 -10.000186 0
-10.002633 -0.54644976 0
-10.020132 1.5146189e-05 0
-10.020072 -6.3740336e-07 0
-10.020072 1.3332582e-10 0
-10.020072 4.7817266e-13 0
-10.020072 -2.8632098e-14 0
-10.020072 -1.2798054e-13 0
-10.020072 3.3660055e-15 0
-10.020072 -6.6174512e-14 0
-10.020072 -1.266001e-13 0
-10.020072 -1.8711967e-13 0
-10.020072 -2.5567206e-13 0
-10.020072 1.8960238e-13 0
-10.020072 1.266098e-13 0
-10.020072 1.2954873e-13 0
-10.020072 -2.998064e-15 0
-10.020072 -1.2041639e-17 0
-10.020072 9.047232e-17 0
-10.020072 -1.8326518e-13 0
-10.020072 -1.3026498e-10 0
-10.020072 6.3355492e-07 0
-10.020132 -1.5275085e-05 0
-10.002633 0.54644963 0
4.836407 10.000186 0
-5.8357386 6.1805995 0
10.013295 0.45099025 0
10.023775 -7.3599941e-05 0
10.023775 -2.0887302e-07 0
10.023775 -1.7263667e-11 0
10.023775 1.2494018e-14 0
10.023775 -3.694625e-16 0
10.023775 -2.8242515e-15 0
10.023775 3.2202683e-15 0
10.023775 -3.4998019e-15 0
10.023775 -1.5018006e-15 0
10.023775 5.0233099e-16 0
10.023775 -5.6664995e-15 0
10.023775 2.0661919e-15 0
10.023775 1.51082e-15 0
10.023775 4.3220601e-15 0
10.023775 -2.8690176e-15 0
10.023775 -1.0894185e-17 0
10.023775 1.1167821e-16 0
10.023775 -8.0580258e-16 0
10.023775 4.7676947e-12 0
10.023775 2.1200946e-07 0
10.023775 7.3705425e-05 0
10.013295 -0.45099015 0
-5.8357386 -6.1805995 0
-10.000626 0.0044509128 0
-10.024938 0.00048734205 0
-10.022201 -5.6578777e-06 0
-10.022198 -4.9852604e-08 0
-10.022198 7.0778303e-12 0
-10.022198 -2.0329943e-15 0
-10.022198 1.9847116e-17 0
-10.022198 -1.2195986e-15 0
-10.022198 3.0762855e-15 0
-10.022198 -2.6032701e-15 0
-10.022198 4.444843e-17 0
-10.022198 2.6983671e-15 0
-10.022198 -2.4546239e-15 0
-10.022198 -2.4448234e-16 0
-10.022198 -3.5965019e-17 0
-10.022198 2.6492087e-15 0
-10.022198 -2.7415149e-15 0
-10.022198 -9.7916961e-18 0
-10.022198 1.0563147e-16 0
-10.022198 5.3830836e-15 0
-10.022198 -7.1433129e-12 0
-10.022198 4.9852811e-08 0
-10.022201 5.6579313e-06 0
-10.024938 -0.00048734189 0
-10.000626 -0.0044509128 0
-10.000007 0.0045114393 0
-10.000019 2.3036879e-05 0
-10.000022 -1.3924812e-07 0
-10.000022 -1.565096e-10 0
-10.000022 3.9872673e-13 0
-10.000022 5.0152213e-16 0
-10.000022 -3.7936e-18 0
-10.000022 -1.2863391e-15 0
-10.000022 3.0249937e-15 0
-10.000022 -2.6040423e-15 0
-10.000022 -4.3627144e-17 0
-10.000022 2.5227e-15 0
-10.000022 -2.5883852e-15 0
-10.000022 -1.0935194e-16 0
-10.000022 5.1850703e-17 0
-10.000022 2.6922121e-15 0
-10.000022 -2.6961176e-15 0
-10.000022 -9.3166321e-18 0
-10.000022 1.0430295e-16 0
-10.000022 1.9977524e-15 0
-10.000022 -4.0083498e-13 0
-10.000022 1.5649965e-10 0
-10.000022 1.3924814e-07 0
-10.000019 -2.3036879e-05 0
-10.000007 -0.0045114393 0
-10 0.0045096574 0
-10 2.1171489e-05 0
-10 -9.9526357e-08 0
-10 -1.6308709e-10 0
-10 3.9451143e-13 0
-10 5.0182024e-16 0
-10 -3.7700984e-18 0
-10 -1.2867782e-15 0
-10 3.0247539e-15 0
-10 -2.6035823e-15 0
-10 -4.3708602e-17 0
-10 2.5218991e-15 0
-10 -2.5884201e-15 0
-10 -1.0881785e-16 0
-10 5.2218367e-17 0
-10 2.69215e-15 0
-10 -2.6957147e-15 0
-10 -9.3073626e-18 0
-10 1.0426417e-16 0
-10 1.9967121e-15 0
-10 -3.9632071e-13 0
-10 1.6308633e-10 0
-10 9.9526356e-08 0
-10 -2.1171489e-05 0
-10 -0.0045096574 0
-10 0.0045096574 0
-10 2.1171489e-05 0
-10 -9.9525522e-08 0
-10 -1.6309944e-10 0
-10 3.9451268e-13 0
-10 5.016703e-16 0
-10 -3.8461173e-18 0
-10 -1.2869235e-15 0
-10 3.0248629e-15 0
-10 -2.6031457e-15 0
-10 -4.3596001e-17 0
-10 2.5220631e-15 0
-10 -2.5884469e-15 0
-10 -1.0895053e-16 0
-10 5.1695732e-17 0
-10 2.6920622e-15 0
-10 -2.6957468e-15 0
-10 -9.3046817e-18 0
-10 1.04179e-16 0
-10 1.9969342e-15 0
-10 -3.9632204e-13 0
-10 1.6309868e-10 0
-10 9.9525521e-08 0
-10 -2.1171489e-05 0
-10 -0.0045096574 0
-10 0.0045096574 0
-10 2.1171489e-05 0
-10 -9.9525522e-08 0
-10 -1.6309944e-10 0
-10 3.9451275e-13 0
-10 5.0167726e-16 0
-10 -3.8513335e-18 0
-10 -1.2863051e-15 0
-10 3.0248673e-15 0
-10 -2.6037927e-15 0
-10 -4.3608192e-17 0
-10 2.522253e-15 0
-10 -2.588506e-15 0
-10 -1.0890623e-16 0
-10 5.1703587e-17 0
-10 2.69209e-15 0
-10 -2.6957373e-15 0
-10 -9.3046817e-18 0
-10 1.0416078e-16 0
-10 1.9969389e-15 0
-10 -3.9632201e-13 0
-10 1.6309868e-10 0
-10 9.9525521e-08 0
-10 -2.1171489e-05 0
-10 -0.0045096574 0
-10 0.0045096574 0
-10 2.1171489e-05 0
-10 -9.9525522e-08 0
-10 -1.6309944e-10 0
-10 3.945127e-13 0
-10 5.0179454e-16 0
-10 -3.8305076e-18 0
-10 -1.2863432e-15 0
-10 3.0246071e-15 0
-10 -2.603873e-15 0
-10 -4.383191e-17 0
-10 2.5221359e-15 0
-10 -2.5886969e-15 0
-10 -1.0899191e-16 0
-10 5.200678e-17 0
-10 2.6920887e-15 0
-10 -2.695752e-15 0
-10 -9.3173063e-18 0
-10 1.0421759e-16 0
-10 1.9968836e-15 0
-10 -3.9632199e-13 0
-10 1.6309868e-10 0
-10 9.9525521e-08 0
-10 -2.1171489e-05 0
-10 -0.0045096574 0
-10 0.0045096574 0
-10 2.1171489e-05 0
-10 -9.9525522e-08 0
-10 -1.6309944e-10 0
-10 3.9451268e-13 0
-10 5.0178581e-16 0
-10 -3.7624668e-18 0
-10 -1.2866655e-15 0
-10 3.0247179e-15 0
-10 -2.6035714e-15 0
-10 -4.3660312e-17 0
-10 2.5219549e-15 0
-10 -2.5881991e-15 0
-10 -1.089596e-16 0
-10 5.2192266e-17 0
-10 2.692081e-15 0
-10 -2.6956523e-15 0
-10 -9.3070229e-18 0
-10 1.0418381e-16 0
-10 1.9968666e-15 0
-10 -3.96322e-13 0
-10 1.6309868e-10 0
-10 9.9525521e-08 0
-10 -2.1171489e-05 0
-10 -0.0045096574 0
-10 0.0045096574 0
-10 2.1171489e-05 0
-10 -9.9525522e-08 0
-10 -1.6309943e-10 0
-10 3.945125e-13 0
-10 5.0166177e-16 0
-10 -3.8479135e-18 0
-10 -1.2869448e-15 0
-10 3.0248603e-15 0
-10 -2.6031217e-15 0
-10 -4.3604155e-17 0
-10 2.5220408e-15 0
-10 -2.5884459e-15 0
-10 -1.0894766e-16 0
-10 5.1690296e-17 0
-10 2.6920708e-15 0
-10 -2.6957335e-15 0
-10 -9.3046993e-18 0
-10 1.0415697e-16 0
-10 1.9969581e-15 0
-10 -3.9632169e-13 0
-10 1.6309868e-10 0
-10 9.9525521e-08 0
-10 -2.1171489e-05 0
-10 -0.0045096574 0
-10 0.0045096574 0
-10 2.1171489e-05 0
-10 -9.9525522e-08 0
-10 -1.6309944e-10 0
-10 3.9451262e-13 0
-10 5.0168057e-16 0
-10 -3.8512599e-18 0
-10 -1.2863054e-15 0
-10 3.0248672e-15 0
-10 -2.6037923e-15 0
-10 -4.3619071e-17 0
-10 2.5222433e-15 0
-10 -2.5884948e-15 0
-10 -1.0890657e-16 0
-10 5.1702903e-17 0
-10 2.69209e-15 0
-10 -2.6957377e-15 0
-10 -9.304664e-18 0
-10 1.0416113e-16 0
-10 1.9969386e-15 0
-10 -3.9632175e-13 0
-10 1.6309868e-10 0
-10 9.9525521e-08 0
-10 -2.1171489e-05 0
-10 -0.0045096574 0
-10 0.0045096574 0
-10 2.1171489e-05 0
-10 -9.9525522e-08 0
-10 -1.6309944e-10 0
-10 3.9451262e-13 0
-10 5.0168776e-16 0
-10 -3.8513709e-18 0
-10 -1.2863047e-15 0
-10 3.0248673e-15 0
-10 -2.6037931e-15 0
-10 -4.3617985e-17 0
-10 2.5222421e-15 0
-10 -2.5887164e-15 0
-10 -1.089061e-16 0
-10 5.1704126e-17 0
-10 2.6920899e-15 0
-10 -2.6957369e-15 0
-10 -9.3046993e-18 0
-10 1.0416044e-16 0
-10 1.9969391e-15 0
-10 -3.9632175e-13 0
-10 1.6309868e-10 0
-10 9.9525521e-08 0
-10 -2.1171489e-05 0
-10 -0.0045096574 0
-10 0.0045096574 0
-10 2.1171489e-05 0
-10 -9.9525522e-08 0
-10 -1.6309943e-10 0
-10 3.9451244e-13 0
-10 5.0184454e-16 0
-10 -3.7714362e-18 0
-10 -1.2866101e-15 0
-10 3.0248185e-15 0
-10 -2.6037634e-15 0
-10 -4.3790796e-17 0
-10 2.5221016e-15 0
-10 -2.5885531e-15 0
-10 -1.0906811e-16 0
-10 5.1954012e-17 0
-10 2.6919114e-15 0
-10 -2.6956054e-15 0
-10 -9.3196618e-18 0
-10 1.0418808e-16 0
-10 1.9966553e-15 0
-10 -3.9632178e-13 0
-10 1.6309868e-10 0
-10 9.9525521e-08 0
-10 -2.1171489e-05 0
-10 -0.0045096574 0
-10 0.0045096574 0
-10 2.1171489e-05 0
-10 -9.9525522e-08 0
-10 -1.6309944e-10 0
-10 3.9451271e-13 0
-10 5.0195796e-16 0
-10 -3.8260458e-18 0
-10 -1.2870768e-15 0
-10 3.0251583e-15 0
-10 -2.6038395e-15 0
-10 -4.3614847e-17 0
-10 2.5224106e-15 0
-10 -2.588889e-15 0
-10 -1.0853294e-16 0
-10 5.1988157e-17 0
-10 2.6919963e-15 0
-10 -2.695808e-15 0
-10 -9.3095321e-18 0
-10 1.0430944e-16 0
-10 1.9960105e-15 0
-10 -3.963218e-13 0
-10 1.6309868e-10 0
-10 9.9525521e-08 0
-10 -2.1171489e-05 0
-10 -0.0045096574 0
-10 0.0045096574 0
-10 2.1171489e-05 0
-10 -9.9525521e-08 0
-10 -1.630994e-10 0
-10 3.9451258e-13 0
-10 5.0191083e-16 0
-10 -3.8078758e-18 0
-10 -1.2866382e-15 0
-10 3.0248828e-15 0
-10 -2.6037035e-15 0
-10 -4.3650999e-17 0
-10 2.5222775e-15 0
-10 -2.5888252e-15 0
-10 -1.0891439e-16 0
-10 5.1988959e-17 0
-10 2.692169e-15 0
-10 -2.6961212e-15 0
-10 -9.310904e-18 0
-10 1.0467593e-16 0
-10 1.9963129e-15 0
-10 -3.9632197e-13 0
-10 1.6309865e-10 0
-10 9.952552e-08 0
-10 -2.1171489e-05 0
-10 -0.0045096574 0
-9.9999999 0.0045096593 0
-9.9999999 2.1171464e-05 0
-9.9999999 -9.952683e-08 0
-9.9999999 -1.6309831e-10 0
-9.9999999 3.9451813e-13 0
-9.9999999 5.01784e-16 0
-9.9999999 -3.7012295e-18 0
-9.9999999 -1.2859687e-15 0
-9.9999999 3.0248037e-15 0
-9.9999999 -2.6034353e-15 0
-9.9999999 -4.316049e-17 0
-9.9999999 2.5229329e-15 0
-9.9999999 -2.5873308e-15 0
-9.9999999 -1.1009392e-16 0
-9.9999999 5.1546837e-17 0
-9.9999999 2.6915247e-15 0
-9.9999999 -2.6960815e-15 0
-9.9999999 -9.3108082e-18 0
-9.9999999 1.0463585e-16 0
-9.9999999 1.9968244e-15 0
-9.9999999 -3.9632908e-13 0
-9.9999999 1.6309755e-10 0
-9.9999999 9.9526829e-08 0
-9.9999999 -2.1171464e-05 0
-9.9999999 -0.0045096593 0
-10.000022 0.0045099224 0
-10.000021 2.120348e-05 0
-10.000021 -9.9570575e-08 0
-10.000021 -1.6326281e-10 0
-10.000021 3.9472365e-13 0
-10.000021 5.0254387e-16 0
-10.000021 -3.9699097e-18 0
-10.000021 -1.2879248e-15 0
-10.000021 3.0248865e-15 0
-10.000021 -2.6041389e-15 0
-10.000021 -4.4600332e-17 0
-10.000021 2.5209713e-15 0
-10.000021 -2.5911009e-15 0
-10.000021 -1.0759352e-16 0
-10.000021 5.3098836e-17 0
-10.000021 2.6931533e-15 0
-10.000021 -2.6965388e-15 0
-10.000021 -9.3113396e-18 0
-10.000021 1.0497543e-16 0
-10.000021 1.9949789e-15 0
-10.000021 -3.9657419e-13 0
-10.000021 1.6326196e-10 0
-10.000021 9.9570575e-08 0
-10.000021 -2.120348e-05 0
-10.000022 -0.0045099224 0
-10.004261 0.0042608594 0
-10.00451 2.1948122e-05 0
-10.00451 -9.6376266e-08 0
-10.00451 -1.689451e-10 0
-10.00451 3.8418092e-13 0
-10.00451 5.1068e-16 0
-10.00451 -4.3410046e-18 0
-10.00451 -1.2573152e-15 0
-10.00451 2.9480053e-15 0
-10.00451 -2.5387571e-15 0
-10.00451 -4.5347434e-17 0
-10.00451 2.4545616e-15 0
-10.00451 -2.5295817e-15 0
-10.00451 -1.0226162e-16 0
-10.00451 5.4031811e-17 0
-10.00451 2.6265579e-15 0
-10.00451 -2.6285721e-15 0
-10.00451 -9.311031e-18 0
-10.00451 1.030655e-16 0
-10.00451 1.9229862e-15 0
-10.00451 -3.858701e-13 0
-10.00451 1.6894365e-10 0
-10.00451 9.6376267e-08 0
-10.00451 -2.1948122e-05 0
-10.004261 -0.0042608594 0
-9.8154478 1.635436 0
-9.6374738 2.4900385 0
-10.023254 -0.0018946288 0
-10.023194 -8.2009693e-06 0
-10.023192 2.2310323e-06 0
-10.023192 -1.2716684e-10 0
-10.023192 -2.2085864e-13 0
-10.023192 -5.4091873e-11 0
-10.023192 7.1372876e-15 0
-10.023192 -5.7105722e-13 0
-10.023192 -5.3959137e-11 0
-10.023192 -5.559697e-10 0
-10.023192 -4.3284976e-08 0
-10.023192 5.595346e-10 0
-10.023192 1.1180904e-12 0
-10.023192 1.1439976e-12 0
-10.023192 -3.8954969e-15 0
-10.023192 -2.0058588e-17 0
-10.023192 2.4258373e-16 0
-10.023192 -1.4489593e-12 0
-10.023192 7.824359e-11 0
-10.023194 8.4274903e-06 0
-10.023254 0.0018948189 0
-9.637474 -2.4900385 0
-9.8154479 -1.6354358 0
2.6549709 -13.76528 0
8.198576 1.8618415 0
10.021187 0.0085263447 0
10.022053 2.0218323e-06 0
10.022054 -1.6129294e-06 0
10.022054 7.9650978e-11 0
10.022054 -3.2167219e-13 0
10.022054 3.8174117e-11 0
10.022054 3.0798711e-15 0
10.022054 -3.8257719e-13 0
10.022054 3.7575699e-11 0
10.022054 2.5589666e-10 0
10.022054 2.5510241e-08 0
10.022054 -2.5755883e-10 0
10.022054 7.6363239e-13 0
10.022054 7.5944067e-13 0
10.022054 -3.7763953e-15 0
10.022054 -1.8745622e-17 0
10.022054 1.9178892e-16 0
10.022054 -1.2128411e-12 0
10.022054 1.0107994e-09 0
10.022053 -2.5577504e-06 0
10.021187 -0.0085343657 0
8.1985758 -1.8618398 0
2.6549709 13.76528 0
0.55625401 -5.1836479 0
-5.5493094 13.250359 0
-10.019573 -0.021756485 0
-10.023898 -2.2672208e-05 0
-10.023899 1.4979555e-06 0
-10.023899 -7.5742444e-11 0
-10.023899 -1.6109627e-13 0
-10.023899 -3.206239e-11 0
-10.023899 4.7548251e-15 0
-10.023899 -3.7159246e-13 0
-10.023899 -3.181357e-11 0
-10.023899 -2.108724e-10 0
-10.023899 -2.2696369e-08 0
-10.023899 2.1243082e-10 0
-10.023899 7.3277894e-13 0
-10.023899 7.4109355e-13 0
-10.023899 -3.6461388e-15 0
-10.023899 -1.7706487e-17 0
-10.023899 2.0259417e-16 0
-10.023899 -1.0865813e-12 0
-10.023899 -1.1964716e-09 0
-10.023898 2.3222004e-05 0
-10.019573 0.021764756 0
-5.549311 -13.25036 0
0.55625609 5.1836463 0
0.32044122 -3.7927124 0
-9.0730224 -4.4272697 0
10.021489 0.0059386909 0
10.020841 3.6924559e-06 0
10.020838 -4.7316454e-07 0
10.020838 6.7229616e-12 0
10.020838 -2.356551e-13 0
10.020838 -3.4712456e-13 0
10.020838 4.3878937e-15 0
10.020838 -2.2204143e-13 0
10.020838 -3.4039471e-13 0
10.020838 7.3235136e-12 0
10.020838 3.8120072e-09 0
10.020838 -7.1048541e-12 0
10.020838 4.3777069e-13 0
10.020838 4.416911e-13 0
10.020838 -3.5163841e-15 0
10.020838 -1.6645881e-17 0
10.020838 1.8553828e-16 0
10.020838 -1.5263968e-12 0
10.020838 -7.7994682e-10 0
10.020841 -4.1372212e-06 0