# vtk DataFile Version 4.0
hesp visualization file
ASCII
DATASET UNSTRUCTURED_GRID
POINTS 32 double
5.1045121 1.1545116 4
5.1309375 2.2576135 4
5.1309375 3.3546967 4
5.1045121 4.4577986 4
6.2076143 1.180937 4
6.2186957 2.2686947 4
6.2186957 3.3436155 4
6.2076143 4.4313732 4
7.3046984 1.1809371 4
7.2936173 2.2686948 4
7.2936173 3.3436155 4
7.3046984 4.4313731 4
8.4078019 1.1545122 4
8.3813769 2.2576137 4
8.3813769 3.3546965 4
8.4078019 4.4577981 4
13.204508 1.1545122 4
13.230933 2.2576137 4
13.230933 3.3546965 4
13.204508 4.4577981 4
14.307612 1.1809371 4
14.318693 2.2686948 4
14.318693 3.3436155 4
14.307612 4.4313731 4
15.404696 1.180937 4
15.393615 2.2686947 4
15.393615 3.3436155 4
15.404696 4.4313732 4
16.507798 1.1545116 4
16.481373 2.2576135 4
16.481373 3.3546967 4
16.507798 4.4577986 4
CELLS 0 0
CELL_TYPES 0
POINT_DATA 32
SCALARS m double
LOOKUP_TABLE default
1
1
1
1
1
1
1
1
1
1
1
1
1
1
1
1
1
1
1
1
1
1
1
1
1
1
1
1
1
1
1
1
VECTORS v double
10.067527 0.067520903 0
10.124637 0.02796335 0
10.124637 -0.02796335 0
10.067527 -0.067520903 0
10.027975 0.12463069 0
10.036902 0.036887836 0
10.036902 -0.036887836 0
10.027975 -0.12463069 0
9.9720626 0.12463258 0
9.9631418 0.03688852 0
9.9631418 -0.03688852 0
9.9720626 -0.12463258 0
9.9325392 0.067532023 0
9.8754375 0.02796764 0
9.8754375 -0.02796764 0
9.9325392 -0.067532023 0
-9.9325392 0.067532023 0
-9.8754375 0.02796764 0
-9.8754375 -0.02796764 0
-9.9325392 -0.067532023 0
-9.9720626 0.12463258 0
-9.9631418 0.03688852 0
-9.9631418 -0.03688852 0
-9.9720626 -0.12463258 0
-10.027975 0.12463069 0
-10.036902 0.036887836 0
-10.036902 -0.036887836 0
-10.027975 -0.12463069 0
-10.067527 0.067520903 0
-10.124637 0.02796335 0
-10.124637 -0.02796335 0
-10.067527 -0.067520903 0
