# vtk DataFile Version 4.0
hesp visualization file
ASCII
DATASET UNSTRUCTURED_GRID
POINTS 1250 double
33.629764 2.9706194 4
30.822852 3.1734924 4
32.460765 3.9317804 4
32.004508 4.4607832 4
30.547463 6.2854168 4
30.429296 6.8010807 4
30.233171 7.8578339 4
30.233365 8.979772 4
30.233366 10.102158 4
30.233366 11.22462 4
30.233366 12.347156 4
30.233364 13.470393 4
30.216052 14.670274 4
30.233364 15.713603 4
30.233366 16.836931 4
30.233366 17.959393 4
30.233366 19.081855 4
30.233365 20.204317 4
30.233168 21.326242 4
30.429149 21.954812 4
31.111425 22.891322 4
32.064571 24.691718 4
32.460731 25.239253 4
30.814729 26.014402 4
33.629655 26.213356 4
30.685684 -4.9379023 4
33.454194 1.563096 4
30.3463 1.3865068 4
30.796451 4.3155623 4
31.917324 6.413149 4
31.569619 7.4375001 4
31.356067 7.8558785 4
31.092751 8.9796796 4
31.092691 10.102158 4
31.092691 11.22462 4
31.092691 12.347032 4
31.092692 13.468866 4
31.103326 14.524931 4
31.092692 15.715162 4
31.092691 16.836931 4
31.092691 17.959393 4
31.092691 19.081855 4
31.092752 20.204283 4
31.356044 21.32811 4
31.573395 21.747176 4
31.543649 22.678483 4
30.796773 24.847745 4
30.344035 27.795779 4
33.454193 27.620919 4
30.685684 34.121916 4
31.099109 0.96634572 4
31.319161 3.1411162 4
31.601595 5.0611155 4
32.404865 5.5722995 4
30.379159 5.5499446 4
31.177224 7.3036355 4
31.910532 8.801871 4
31.559753 8.9795106 4
31.55963 10.102158 4
31.55963 11.22462 4
31.55963 12.347121 4
31.559629 13.470112 4
31.548645 14.649989 4
31.559628 15.71389 4
31.55963 16.836931 4
31.55963 17.959393 4
31.55963 19.081855 4
31.559756 20.204547 4
31.906367 20.382096 4
30.767081 21.823663 4
30.378896 23.611963 4
32.899634 23.710234 4
31.541256 24.192457 4
31.317889 26.041947 4
31.099109 28.217667 4
31.695226 -1.2101789 4
30.729137 -1.6051484 4
32.600297 3.4586251 4
32.178833 4.1613804 4
31.489848 6.0709819 4
31.511143 6.8032196 4
32.418654 7.8625815 4
32.418724 8.9796294 4
32.418748 10.102158 4
32.418749 11.22462 4
32.418749 12.347066 4
32.418749 13.469236 4
32.421388 14.555955 4
32.418749 15.714784 4
32.418749 16.836931 4
32.418749 17.959393 4
32.418748 19.081855 4
32.418725 20.204366 4
32.418653 21.3215 4
31.499465 22.440288 4
31.772895 23.289874 4
32.171205 25.023907 4
32.597929 25.720957 4
30.729135 30.789161 4
31.695227 30.394192 4
34.457324 3.9223429 4
30.404803 3.2370299 4
31.099211 2.0873039 4
33.962015 5.1290448 4
33.07934 5.9805735 4
32.622824 6.7339 4
32.881682 7.854666 4
32.886237 8.9797189 4
32.886259 10.102158 4
32.886259 11.22462 4
32.886259 12.347093 4
32.886259 13.469766 4
32.883446 14.61934 4
32.886259 15.714243 4
32.886259 16.836931 4
32.886259 17.959393 4
32.886259 19.081855 4
32.886237 20.204306 4
32.881701 21.329314 4
32.622821 22.4502 4
32.704382 23.067012 4
33.773317 24.252985 4
31.099679 27.095145 4
30.404831 25.9462 4
34.456891 25.261981 4
30.996231 -0.47260299 4
32.830883 -0.42447888 4
35.280942 4.4604709 4
32.716446 5.2129127 4
33.773724 6.485833 4
33.744799 6.7375787 4
33.744954 7.8572295 4
33.744954 8.9796937 4
33.744954 10.102158 4
33.744954 11.22462 4
33.744954 12.34708 4
33.744954 13.469466 4
33.745208 14.580149 4
33.744954 15.714549 4
33.744954 16.836931 4
33.744954 17.959393 4
33.744954 19.081855 4
33.744954 20.204317 4
33.744954 21.326784 4
33.744821 22.449481 4
33.820164 22.750737 4
32.713482 23.976277 4
35.281115 24.723432 4
32.830985 29.608519 4
30.996229 29.656617 4
31.932005 1.828547 4
36.115954 2.5293433 4
32.180879 3.0572283 4
33.020156 4.4806542 4
33.857522 5.5854574 4
34.21298 6.7345271 4
34.21328 7.8572362 4
34.213281 8.9796979 4
34.213282 10.102158 4
34.213282 11.22462 4
34.213282 12.347084 4
34.213282 13.469594 4
34.213002 14.599964 4
34.213282 15.714419 4
34.213282 16.836931 4
34.213282 17.959393 4
34.213282 19.081855 4
34.213281 20.204317 4
34.21328 21.326777 4
34.213089 22.449678 4
33.910043 23.544707 4
33.01996 24.701578 4
32.180934 26.127253 4
36.115623 26.654791 4
31.932328 27.357933 4
37.019689 -2.815133 4
34.603491 4.3144305 4
35.551015 2.7466271 4
34.269977 5.465418 4
35.326211 5.709474 4
35.071482 6.7347841 4
35.071351 7.8572342 4
35.071351 8.9796962 4
35.071351 10.102158 4
35.071351 11.22462 4
35.071351 12.347082 4
35.071351 13.469534 4
35.071359 14.5897 4
35.071351 15.714479 4
35.071351 16.836931 4
35.071351 17.959393 4
35.071351 19.081855 4
35.071351 20.204317 4
35.071351 21.326779 4
35.071479 22.449215 4
35.335728 23.571065 4
34.219187 23.647011 4
35.550106 26.436955 4
34.608905 24.868119 4
37.019689 31.999146 4
33.160506 3.4798181 4
34.762584 2.0989001 4
36.021814 3.5985325 4
36.078317 5.0519139 4
36.220787 5.6632938 4
35.540659 6.7345785 4
35.540582 7.8572336 4
35.540581 8.9796965 4
35.540581 10.102158 4
35.540581 11.22462 4
35.540581 12.347083 4
35.540581 13.46955 4
35.540571 14.593391 4
35.540581 15.714463 4
35.540581 16.836931 4
35.540581 17.959393 4
35.540581 19.081855 4
35.540581 20.204317 4
35.540582 21.32678 4
35.540653 22.449436 4
36.229583 23.516266 4
36.061442 24.129785 4
36.013881 25.593055 4
34.762615 27.084964 4
33.160514 25.704199 4
32.723761 1.1266063 4
35.262953 -0.32453243 4
35.070633 3.3411171 4
35.720965 4.5737787 4
36.018 6.7723451 4
36.397569 6.7339034 4
36.3979 7.8572334 4
36.3979 8.9796964 4
36.3979 10.102158 4
36.3979 11.22462 4
36.3979 12.347083 4
36.3979 13.469544 4
36.3979 14.591764 4
36.3979 15.714469 4
36.3979 16.836931 4
36.3979 17.959393 4
36.3979 19.081855 4
36.3979 20.204317 4
36.3979 21.32678 4
36.397545 22.450149 4
36.025276 22.411204 4
35.719909 24.609528 4
35.071089 25.842349 4
35.262954 29.508544 4
32.723761 28.057407 4
33.553707 0.91487782 4
36.944265 2.030502 4
37.241364 4.1747088 4
36.490681 4.3718923 4
36.602093 5.6100215 4
36.867554 6.7350625 4
36.867951 7.8572342 4
36.867951 8.9796964 4
36.867951 10.102158 4
36.867951 11.22462 4
36.867951 12.347083 4
36.867951 13.469545 4
36.867951 14.592138 4
36.867951 15.714468 4
36.867951 16.836931 4
36.867951 17.959393 4
36.867951 19.081855 4
36.867951 20.204317 4
36.867951 21.326779 4
36.867536 22.44894 4
36.602073 23.572133 4
36.491492 24.812893 4
37.242228 25.00886 4
36.944224 27.153577 4
33.553706 28.269136 4
34.966366 1.1237821 4
36.484368 1.7752771 4
37.238893 5.6192503 4
37.775092 4.3025323 4
37.724443 5.6146245 4
37.724531 6.7347727 4
37.724532 7.8572342 4
37.724532 8.9796964 4
37.724532 10.102158 4
37.724532 11.22462 4
37.724532 12.347083 4
37.724532 13.469545 4
37.724532 14.591996 4
37.724532 15.714469 4
37.724532 16.836931 4
37.724532 17.959393 4
37.724532 19.081855 4
37.724532 20.204317 4
37.724532 21.326779 4
37.724531 22.449241 4
37.724436 23.572189 4
37.774671 24.881121 4
37.237132 23.564911 4
36.484557 27.408859 4
34.966366 28.060231 4
36.09199 1.125759 4
36.100379 2.2167424 4
37.936765 2.8062119 4
38.151642 4.5829218 4
38.194877 5.6109876 4
38.195157 6.7347715 4
38.195158 7.8572344 4
38.195158 8.9796964 4
38.195158 10.102158 4
38.195158 11.22462 4
38.195158 12.347083 4
38.195158 13.469545 4
38.195158 14.592012 4
38.195158 15.714469 4
38.195158 16.836931 4
38.195158 17.959393 4
38.195158 19.081855 4
38.195158 20.204317 4
38.195158 21.326779 4
38.195157 22.449242 4
38.194887 23.571526 4
38.152748 24.601374 4
37.935726 26.378015 4
36.1004 26.96732 4
36.09199 28.058254 4
37.214464 1.1256782 4
37.765737 2.1314968 4
38.133519 3.422642 4
39.051284 4.4812635 4
39.051177 5.6124228 4
39.051177 6.7347722 4
39.051177 7.8572343 4
39.051177 8.9796964 4
39.051177 10.102158 4
39.051177 11.22462 4
39.051177 12.347083 4
39.051177 13.469545 4
39.051177 14.592007 4
39.051177 15.714469 4
39.051177 16.836931 4
39.051177 17.959393 4
39.051177 19.081855 4
39.051177 20.204317 4
39.051177 21.326779 4
39.051177 22.449241 4
39.051177 23.571694 4
39.051276 24.702441 4
38.133525 25.761262 4
37.766185 27.052693 4
37.214464 28.058335 4
38.336929 1.1256612 4
38.336859 2.2449723 4
39.266982 3.2228052 4
39.521338 4.4946536 4
39.522 5.6122559 4
39.522003 6.7347723 4
39.522003 7.8572343 4
39.522003 8.9796964 4
39.522003 10.102158 4
39.522003 11.22462 4
39.522003 12.347083 4
39.522003 13.469545 4
39.522003 14.592007 4
39.522003 15.714469 4
39.522003 16.836931 4
39.522003 17.959393 4
39.522003 19.081855 4
39.522003 20.204317 4
39.522003 21.326779 4
39.522003 22.449241 4
39.522 23.571706 4
39.521348 24.689526 4
39.267028 25.961488 4
38.336858 26.939041 4
38.336929 28.058352 4
39.459393 1.1256595 4
39.459387 2.2449579 4
40.4328 3.5512796 4
40.377797 4.4893518 4
40.377797 5.612309 4
40.377797 6.7347723 4
40.377797 7.8572343 4
40.377797 8.9796964 4
40.377797 10.102158 4
40.377797 11.22462 4
40.377797 12.347083 4
40.377797 13.469545 4
40.377797 14.592007 4
40.377797 15.714469 4
40.377797 16.836931 4
40.377797 17.959393 4
40.377797 19.081855 4
40.377797 20.204317 4
40.377797 21.326779 4
40.377797 22.449241 4
40.377797 23.571704 4
40.377797 24.694649 4
40.432995 25.632454 4
39.459387 26.939055 4
39.459393 28.058354 4
40.581855 1.1256592 4
40.581853 2.2449395 4
40.778747 3.286368 4
40.84719 4.4900916 4
40.847194 5.6123109 4
40.847194 6.7347723 4
40.847194 7.8572343 4
40.847194 8.9796964 4
40.847194 10.102158 4
40.847194 11.22462 4
40.847194 12.347083 4
40.847194 13.469545 4
40.847194 14.592007 4
40.847194 15.714469 4
40.847194 16.836931 4
40.847194 17.959393 4
40.847194 19.081855 4
40.847194 20.204317 4
40.847194 21.326779 4
40.847194 22.449241 4
40.847194 23.571702 4
40.84719 24.693928 4
40.778501 25.897727 4
40.581853 26.939074 4
40.581855 28.058354 4
41.704317 1.1256592 4
41.704317 2.2449364 4
41.704316 3.3673862 4
41.704315 4.4898482 4
41.704315 5.6123102 4
41.704315 6.7347723 4
41.704315 7.8572343 4
41.704315 8.9796964 4
41.704315 10.102158 4
41.704315 11.22462 4
41.704315 12.347083 4
41.704315 13.469545 4
41.704315 14.592007 4
41.704315 15.714469 4
41.704315 16.836931 4
41.704315 17.959393 4
41.704315 19.081855 4
41.704315 20.204317 4
41.704315 21.326779 4
41.704315 22.449241 4
41.704315 23.571703 4
41.704315 24.694165 4
41.704316 25.816627 4
41.704317 26.939077 4
41.704317 28.058354 4
42.826779 1.1256592 4
42.826779 2.2449363 4
42.826779 3.3673861 4
42.826779 4.4898482 4
[...]
POINT_DATA 1250
SCALARS m double
LOOKUP_TABLE default
1
1
1
1
1
1
1
1
1
1
1
1
1
1
1
1
1
1
1
1
1
1
1
1
1
1
1
1
1
1
1
1
1
1
1
1
1
1
1
1
1
1
1
1
1
1
1
1
1
1
1
1
1
1
1
1
1
1
1
1
1
1
1
1
1
1
1
1
1
1
1
1
1
1
1
1
1
1
1
1
1
1
1
1
1
1
1
1
1
1
1
1
1
1
1
1
1
1
1
1
1
1
1
1
1
1
1
1
1
1
1
1
1
1
1
1
1
1
1
1
1
1
1
1
1
1
1
1
1
1
1
1
1
1
1
1
1
1
1
1
1
1
1
1
1
1
1
1
1
1
1
1
1
1
1
1
1
1
1
1
1
1
1
1
1
1
1
1
1
1
1
1
1
1
1
1
1
1
1
1
1
1
1
1
1
1
1
1
1
1
1
1
1
1
1
1
1
1
1
1
1
1
1
1
1
1
1
1
1
1
1
1
1
1
1
1
1
1
1
1
1
1
1
1
1
1
1
1
1
1
1
1
1
1
1
1
1
1
1
1
1
1
1
1
1
1
1
1
1
1
1
1
1
1
1
1
1
1
1
1
1
1
1
1
1
1
1
1
1
1
1
1
1
1
1
1
1
1
1
1
1
1
1
1
1
1
1
1
1
1
1
1
1
1
1
1
1
1
1
1
1
1
1
1
1
1
1
1
1
1
1
1
1
1
1
1
1
1
1
1
1
1
1
1
1
1
1
1
1
1
1
1
1
1
1
1
1
1
1
1
1
1
1
1
1
1
1
1
1
1
1
1
1
1
1
1
1
1
1
1
1
1
1
1
1
1
1
1
1
1
1
1
1
1
1
1
1
1
1
1
1
1
1
1
1
1
1
1
1
1
1
1
1
1
1
1
1
1
1
1
1
1
1
1
1
1
1
1
1
1
1
1
1
1
1
1
1
1
1
1
1
1
1
1
1
1
1
1
1
1
1
1
1
1
1
1
1
1
1
1
1
1
1
1
1
1
1
1
1
1
1
1
1
1
1
1
1
1
1
1
1
1
1
1
1
1
1
1
1
1
1
1
1
1
1
1
1
1
1
1
1
1
1
1
1
1
1
1
1
1
1
1
1
1
1
1
1
1
1
1
1
1
1
1
1
1
1
1
1
1
1
1
1
1
1
1
1
1
1
1
1
1
1
1
1
1
1
1
1
1
1
1
1
1
1
1
1
1
1
1
1
1
1
1
1
1
1
1
1
1
1
1
1
1
1
1
1
1
1
1
1
1
1
1
1
1
1
1
1
1
1
1
1
1
1
1
1
1
1
1
1
1
1
1
1
1
1
1
1
1
1
1
1
1
1
1
1
1
1
1
1
1
1
1
1
1
1
1
1
1
1
1
1
1
1
1
1
1
1
1
1
1
1
1
1
1
1
1
1
1
1
1
1
1
1
1
1
1
1
1
1
1
1
1
1
1
1
1
1
1
1
1
1
1
1
1
1
1
1
1
1
1
1
1
1
1
1
1
1
1
1
1
1
1
1
1
1
1
1
1
1
1
1
1
1
1
1
1
1
1
1
1
1
1
1
1
1
1
1
1
1
1
1
1
1
1
1
1
1
1
1
1
1
1
1
1
1
1
1
1
1
1
1
1
1
1
1
1
1
1
1
1
1
1
1
1
1
1
1
1
1
1
1
1
1
1
1
1
1
1
1
1
1
1
1
1
1
1
1
1
1
1
1
1
1
1
1
1
1
1
1
1
1
1
1
1
1
1
1
1
1
1
1
1
1
1
1
1
1
1
1
1
1
1
1
1
1
1
1
1
1
1
1
1
1
1
1
1
1
1
1
1
1
1
1
1
1
1
1
1
1
1
1
1
1
1
1
1
1
1
1
1
1
1
1
1
1
1
1
1
1
1
1
1
1
1
1
1
1
1
1
1
1
1
1
1
1
1
1
1
1
1
1
1
1
1
1
1
1
1
1
1
1
1
1
1
1
1
1
1
1
1
1
1
1
1
1
1
1
1
1
1
1
1
1
1
1
1
1
1
1
1
1
1
1
1
1
1
1
1
1
1
1
1
1
1
1
1
1
1
1
1
1
1
1
1
1
1
1
1
1
1
1
1
1
1
1
1
1
1
1
1
1
1
1
1
1
1
1
1
1
1
1
1
1
1
1
1
1
1
1
1
1
1
1
1
1
1
1
1
1
1
1
1
1
1
1
1
1
1
1
1
1
1
1
1
1
1
1
1
1
1
1
1
1
1
1
1
1
1
1
1
1
1
1
1
1
1
1
1
1
1
1
1
1
1
1
1
1
1
1
1
1
1
1
1
1
1
1
1
1
1
1
1
1
1
1
1
1
1
1
1
1
1
1
1
1
1
1
1
1
1
1
1
1
1
1
1
1
1
1
1
1
1
1
1
1
1
1
1
1
1
1
1
1
1
1
1
1
1
1
1
1
1
1
1
1
1
1
1
1
1
1
1
1
1
1
1
1
1
1
1
1
1
1
1
1
1
1
1
1
1
1
1
1
1
1
1
1
1
1
1
1
1
1
1
1
1
1
1
1
1
1
1
1
1
1
1
1
1
1
1
1
1
1
1
1
1
1
1
1
1
1
1
1
1
1
1
1
1
1
1
1
1
1
1
1
1
1
1
1
1
1
1
1
1
1
1
1
1
1
1
1
1
1
1
1
1
1
1
1
1
1
1
1
1
1
1
1
1
1
1
1
1
1
1
1
1
1
1
1
1
1
1
1
1
1
1
1
1
1
1
1
1
1
1
1
1
1
1
1
1
1
1
1
1
1
1
1
1
1
1
1
1
1
1
1
1
1
1
VECTORS v double
3.5254693 7.5346328 0
-6.2912463 -8.3366909 0
7.5718617 1.6840827 0
8.7883863 -0.91573353 0
-3.3964853 -4.5803608 0
-5.8579736 1.502373 0
10.006894 0.010914406 0
10.009805 0.0043903058 0
10.009818 -1.1386701e-06 0
10.009818 -2.779497e-07 0
10.009817 0.004291635 0
10.009693 0.048286279 0
8.9650048 4.4494035 0
10.009701 -0.049271033 0
10.009818 4.7774855e-06 0
10.009818 -1.2653244e-08 0
10.009818 8.3496552e-07 0
10.009807 2.6078487e-06 0
10.007503 -0.0059286977 0
-2.6007183 -8.8383025 0
5.8535227 6.2693965 0
10.519684 0.14353611 0
7.5471889 -1.8340508 0
-6.3472724 8.4410022 0
3.5248601 -7.5348577 0
-2.631046 -13.726701 0
8.1248913 -2.6213467 0
-5.4313326 -9.7918392 0
10.107 1.3757465 0
12.81365 -3.2673717 0
-2.6533954 -4.8244322 0
10.026891 -0.055188061 0
-10.007902 0.0002559907 0
-10.011833 -4.4149109e-06 0
-10.011839 1.5572834e-07 0
-10.011839 -0.0026039466 0
-10.011782 -0.036145287 0
-9.3657719 -3.6197017 0
-10.011768 0.036925606 0
-10.011839 -3.4685724e-06 0
-10.011839 5.8651333e-09 0
-10.011833 4.660165e-06 0
-10.007843 -0.0029055357 0
10.025843 0.049970711 0
-2.5582089 4.8213009 0
-1.4764026 -7.5969987 0
10.109213 -1.6545009 0
-5.4444875 9.781659 0
8.1248839 2.6213459 0
-2.631046 13.726701 0
9.3113604 0.074313788 0
9.9356946 2.2182681 0
1.8525775 7.1104741 0
-7.2864396 -0.87670273 0
-9.9995208 -0.40929491 0
6.4359667 10.319357 0
1.8621275 18.365175 0
10.038681 -0.024265867 0
10.008793 -2.8101019e-05 0
10.008787 -1.9938158e-07 0
10.008786 0.0024118746 0
10.008718 0.034306746 0
9.3571946 3.4678185 0
10.008725 -0.035021648 0
10.008787 3.1599625e-06 0
10.008787 7.0281934e-08 0
10.008793 2.8061697e-05 0
10.039714 0.027662534 0
1.7882902 -18.379861 0
-3.6096015 -10.493004 0
-10.000152 0.26696424 0
7.537873 -0.88930841 0
0.71002197 -5.8133579 0
9.8684487 -2.2950179 0
9.3113959 -0.07425961 0
-0.49614026 -3.6843529 0
-6.8353631 -10.61961 0
-4.7646341 -5.4298556 0
11.465581 -4.5852245 0
-10.202559 5.0500856 0
-9.5219354 3.4466654 0
-10.011581 0.25270576 0
-10.019426 -0.005259162 0
-10.014088 -1.9769961e-05 0
-10.014082 -8.6713648e-09 0
-10.014082 -0.00082749 0
-10.014073 -0.015681711 0
-9.8535009 -1.8641192 0
-10.014067 0.0160417 0
-10.014082 -1.4877001e-06 0
-10.014082 4.5093418e-08 0
-10.014088 1.9671976e-05 0
-10.019224 0.0042799257 0
-10.011635 -0.24945017 0
-10.712586 -5.6433449 0
3.3224899 10.109513 0
10.90276 4.3817473 0
-4.7819248 5.3940859 0
-6.8353689 10.619608 0
-0.49613864 3.6843542 0
-7.3305064 9.5456798 0
-8.2481795 4.3381642 0
-8.7579587 -4.9230823 0
9.1530066 -5.1623145 0
6.3347934 8.9645431 0
-9.9997585 -0.013837547 0
9.9198291 -0.20072922 0
10.007862 0.001670229 0
10.009098 -5.0581814e-06 0
10.009103 -2.0172861e-08 0
10.009103 0.0007299849 0
10.009089 0.014231526 0
9.8457929 1.7182356 0
10.009093 -0.014533186 0
10.009103 1.2475095e-06 0
10.009103 -2.5254061e-09 0
10.009098 4.9848043e-06 0
10.007885 -0.00091455102 0
9.9202479 0.19816942 0
-9.9993164 0.019002085 0
-6.6785008 -7.9069577 0
6.4167591 8.1753113 0
-8.757369 4.8992393 0
-8.2351954 -4.3587345 0
-7.3405371 -9.5362514 0
-1.1255811 -6.3252657 0
-1.9930412 -10.927073 0
-9.9733535 0.01139987 0
-7.599744 10.770428 0
2.5868589 9.1296385 0
-10.126339 2.2708304 0
-10.015782 -0.00022779834 0
-10.015795 -0.00012772886 0
-10.015793 -3.0475902e-07 0
-10.015793 2.4930422e-09 0
-10.015793 -0.00013006262 0
-10.015793 -0.0038362102 0
-10.000316 -0.59141254 0
-10.015791 0.0039303217 0
-10.015793 -3.184653e-07 0
-10.015793 5.8717669e-10 0
-10.015793 3.0489206e-07 0
-10.015795 -5.187956e-06 0
-10.015781 0.00023222038 0
-10.034317 0.0099286001 0
3.0332779 -10.778647 0
-7.6386846 -10.741237 0
-9.9656416 0.0098674639 0
-1.9924564 10.92724 0
-1.1255875 6.3252689 0
-0.15864275 -4.3405924 0
1.4851195 3.4700949 0
-9.6143219 -1.1772504 0
-10.160396 0.13621228 0
-14.681341 2.5438424 0
9.9832765 -0.025760186 0
10.010552 0.00014707421 0
10.010565 0.00010743517 0
10.010572 -5.4529012e-10 0
10.010572 -1.5724198e-10 0
10.010572 0.00010999095 0
10.01057 0.0033457549 0
9.9946976 0.52600126 0
10.010572 -0.0034165564 0
10.010572 2.237822e-07 0
10.010572 -6.1362368e-10 0
10.010572 -3.8983704e-10 0
10.010565 4.9191297e-06 0
10.010553 -0.00015903523 0
9.9913728 0.041564115 0
-13.469576 -2.4664301 0
-10.162704 -0.16691403 0
-9.6146174 1.1800735 0
1.4784659 -3.4748255 0
-0.15528211 4.3675375 0
4.8370531 -9.9977527 0
10.615194 1.8869227 0
1.6825204 -3.3760526 0
-3.5456072 4.858663 0
9.8369371 1.5932724 0
-10.010489 0.0032388085 0
-10.016572 -8.992516e-06 0
-10.016585 -8.311977e-06 0
-10.016585 1.0995534e-10 0
-10.016585 -2.8025051e-11 0
-10.016585 -7.9129808e-06 0
-10.016585 -0.00048575225 0
-10.016051 -0.11164127 0
-10.016585 0.00049867456 0
-10.016585 -6.7124683e-08 0
-10.016585 6.8337318e-11 0
-10.016585 -2.3048057e-11 0
-10.016585 2.272503e-07 0
-10.016572 1.2099849e-05 0
-10.010691 -0.0039192699 0
9.9857849 -0.0066726396 0
-4.743848 -6.9064423 0
1.6777029 3.3739168 0
10.668735 -1.896261 0
4.8370532 9.9977527 0
-5.8519916 6.4114638 0
-9.8620273 -1.5713963 0
6.3491012 -7.0651282 0
0.44941569 -6.0110242 0
5.7685168 1.0935604 0
10.028019 -0.0095176675 0
10.012632 -6.1884714e-05 0
10.012615 6.0916987e-06 0
10.012615 6.0399754e-11 0
10.012615 1.6089789e-10 0
10.012615 6.4429224e-06 0
10.012615 0.00040960348 0
10.012063 0.096123307 0
10.012615 -0.00041781695 0
10.012615 3.1259709e-08 0
10.012615 -6.6153393e-11 0
10.012615 -1.3270036e-12 0
10.012615 4.9710058e-07 0
10.012632 5.7669684e-05 0
10.026811 0.0096174294 0
5.9287974 -1.1208282 0
0.18795834 5.9649572 0
6.280396 7.1295009 0
-9.8616774 1.5699961 0
-5.8513187 -6.4113727 0
-9.9965054 0.0400511 0
-3.933245 -8.2577008 0
2.6740044 -3.3697732 0
8.6883141 4.9076215 0
-1.5143367 17.746069 0
-10.07543 -0.048738357 0
-10.016512 -7.9523388e-05 0
-10.01649 -5.7121164e-07 0
-10.01649 4.9956276e-12 0
-10.01649 -3.2247339e-12 0
-10.01649 -4.6382747e-09 0
-10.01649 -2.4567082e-05 0
-10.016485 -0.011435441 0
-10.01649 2.5354318e-05 0
-10.01649 -3.7990719e-09 0
-10.01649 3.4093523e-12 0
-10.01649 -3.9990621e-12 0
-10.01649 5.7437994e-07 0
-10.016511 8.0912398e-05 0
-10.079378 0.05113343 0
-1.4109617 -17.734426 0
8.6766685 -4.934365 0
2.6847223 3.3605414 0
-3.9332426 8.257695 0
-9.9965073 -0.040052144 0
-11.495373 -1.0777504 0
-11.164997 -5.6488066 0
-4.8695771 8.6037245 0
-8.1710775 -1.6283853 0
-10.023799 -0.040885547 0
9.9939882 0.022748614 0
10.014565 -1.1314754e-05 0
10.01458 -3.4400278e-07 0
10.014581 1.6953476e-12 0
10.014581 9.0063472e-13 0
10.014581 4.3890536e-09 0
10.014581 2.0192068e-05 0
10.014575 0.0095654622 0
10.014581 -2.0513655e-05 0
10.014581 2.8906202e-09 0
10.014581 -6.6948605e-13 0
10.014581 -3.1510306e-12 0
10.01458 3.4699348e-07 0
10.014565 1.1329804e-05 0
9.9929339 -0.023576514 0
-10.027284 0.012469491 0
-8.158832 1.6369734 0
-4.8590194 -8.6086961 0
-11.165683 5.6478664 0
-11.495377 1.0777547 0
-10.022322 -0.0084434711 0
5.9779021 -5.2561673 0
-0.85283941 15.827736 0
-7.1731358 -7.0871381 0
-10.03082 0.10639816 0
-10.015813 1.6000993e-07 0
-10.015795 -5.3993791e-06 0
-10.015794 9.3052857e-11 0
-10.015794 5.1443302e-13 0
-10.015794 -2.7629329e-13 0
-10.015794 -1.5088188e-10 0
-10.015794 6.2921392e-09 0
-10.015794 -0.00048676355 0
-10.015794 6.9259805e-09 0
-10.015794 -1.1681351e-10 0
-10.015794 4.0449719e-13 0
-10.015794 -5.2170806e-13 0
-10.015794 -1.0195569e-10 0
-10.015795 5.5138255e-06 0
-10.015813 -3.3522212e-06 0
-10.031054 0.025138715 0
-7.1999284 7.0649588 0
-0.87783691 -15.826652 0
5.9798418 5.2561028 0
-10.022322 0.008444037 0
-9.9994908 0.012198057 0
-9.0002727 -3.5391025 0
1.2964546 -6.7512312 0
4.0291717 5.6738895 0
10.005573 -0.095360418 0
10.015953 -5.1484595e-05 0
10.015986 2.6177699e-06 0
10.015988 5.1901557e-12 0
10.015988 1.9574361e-13 0
10.015988 -2.6451609e-13 0
10.015988 1.0090301e-10 0
10.015988 2.4980794e-09 0
10.015988 0.00039691036 0
10.015988 1.8932499e-09 0
10.015988 7.635191e-11 0
10.015988 5.2380152e-13 0
10.015988 -1.9896004e-13 0
10.015988 -3.6584886e-13 0
10.015986 -2.6966143e-06 0
10.015952 5.1928595e-05 0
10.006143 -0.014353735 0
4.0664621 -5.6525956 0
1.2848865 6.7544001 0
-8.9961636 3.546111 0
-9.9994897 -0.012201522 0
-10.00025 0.0083703308 0
2.0314761 -2.4536627 0
-10.001811 0.47806708 0
-10.007955 -0.40739367 0
-10.014846 0.0051806408 0
-10.014842 -3.0780037e-06 0
-10.014842 2.944741e-09 0
-10.014842 2.9378564e-12 0
-10.014842 3.8805233e-15 0
-10.014842 -7.611984e-14 0
-10.014842 -2.9801246e-12 0
-10.014842 1.2062888e-10 0
-10.014842 -8.8404348e-11 0
-10.014842 1.6509195e-10 0
-10.014842 -2.6863857e-12 0
-10.014842 1.4735828e-13 0
-10.014842 -2.8347928e-15 0
-10.014842 -3.1155512e-12 0
-10.014842 -2.5553575e-10 0
-10.014842 3.0405736e-06 0
-10.014848 -0.00040678871 0
-10.008443 0.39283824 0
-10.001711 -0.47911209 0
2.0348186 2.4561733 0
-10.00025 -0.0083708858 0
-10.000069 0.0076481065 0
-10.007328 0.00097279474 0
-9.8119296 -2.1425944 0
10.004218 0.34421145 0
10.016544 -0.0041898899 0
10.016589 1.5386608e-06 0
10.01659 -1.9809307e-09 0
10.01659 1.8173942e-13 0
10.01659 5.3592729e-15 0
10.01659 -2.1699097e-13 0
10.01659 -4.2610815e-13 0
10.01659 -1.2608975e-10 0
10.01659 7.6593498e-10 0
10.01659 -1.6134231e-10 0
10.01659 4.2273808e-13 0
10.01659 4.2941254e-13 0
10.01659 -4.8434255e-15 0
10.01659 -6.0507494e-13 0
10.01659 8.0733672e-11 0
10.016589 -1.5826349e-06 0
10.016545 0.00029638424 0
10.004729 -0.33207119 0
-9.8111901 2.1467393 0
-10.007349 -0.00095911891 0
-10.000069 -0.0076482975 0
-10.000004 0.0075532009 0
-10.000142 0.00055320712 0
-6.440724 8.550161 0
-10.014061 -0.02312608 0
-10.014081 -5.7888166e-05 0
-10.014081 -4.0396422e-08 0
-10.014081 2.9992406e-11 0
-10.014081 -2.4273086e-13 0
-10.014081 5.3227835e-15 0
-10.014081 -1.3263023e-13 0
-10.014081 -2.561495e-13 0
-10.014081 -4.7532131e-13 0
-10.014081 3.6289593e-13 0
-10.014081 2.8842209e-13 0
-10.014081 2.5616579e-13 0
-10.014081 2.6084766e-13 0
-10.014081 -4.7287253e-15 0
-10.014081 -1.4733407e-14 0
-10.014081 -5.7539455e-12 0
-10.014081 3.7443686e-08 0
-10.014081 6.0144591e-05 0
-10.014062 0.02257322 0
-6.4271961 -8.5630377 0
-10.000142 -0.00055399367 0
-10.000004 -0.0075532043 0
-10.000001 0.0075486474 0
-10.000037 0.00016611565 0
6.2381867 -6.8043078 0
10.01333 0.018589686 0
10.013384 4.7032086e-05 0
10.013385 1.3482554e-08 0
10.013385 8.2069363e-12 0
10.013385 -3.9296705e-14 0
10.013385 5.1635357e-15 0
10.013385 -2.340745e-14 0
10.013385 -3.7991514e-14 0
10.013385 -5.2584747e-14 0
10.013385 -8.0245148e-14 0
10.013385 5.6697915e-14 0
10.013385 3.8001295e-14 0
10.013385 4.2521845e-14 0
10.013385 -4.6012769e-15 0
10.013385 -6.7866408e-16 0
10.013385 -4.6051759e-12 0
10.013385 -1.0872492e-08 0
10.013384 -4.8867391e-05 0
10.013331 -0.018138113 0
6.2238794 6.8138168 0
-10.000037 -0.00016606119 0
-10.000001 -0.0075486469 0
-10 0.0075463726 0
-10.00001 1.5597578e-05 0
-10.00017 5.6110294e-06 0
-10.000272 1.5031439e-06 0
-10.000271 1.442243e-07 0
-10.000271 -1.2681683e-10 0
-10.000271 -2.6177584e-13 0
-10.000271 -2.2389199e-15 0
-10.000271 5.0447e-15 0
-10.000271 -4.3424299e-15 0
-10.000271 -7.2478478e-17 0
-10.000271 4.20654e-15 0
-10.000271 -4.3149152e-15 0
-10.000271 -1.826109e-16 0
-10.000271 8.6074891e-17 0
-10.000271 4.4896592e-15 0
-10.000271 -4.4959507e-15 0
-10.000271 6.2334147e-17 0
-10.000271 2.7491666e-13 0
-10.000271 1.2478388e-10 0
-10.000271 -1.441101e-07 0
-10.000272 -1.5029666e-06 0
-10.00017 -5.6292516e-06 0
-10.00001 -1.55911e-05 0
-10 -0.0075463726 0
-10 0.0075459724 0
-10 5.8660937e-06 0
-10.000001 -1.4910344e-07 0
-10.000002 6.3409527e-08 0
-10.000002 -1.8331302e-11 0
-10.000002 1.8544661e-14 0
-10.000002 -1.4329212e-17 0
-10.000002 -2.1440694e-15 0
-10.000002 5.0415147e-15 0
-10.000002 -4.3396536e-15 0
-10.000002 -7.2686034e-17 0
-10.000002 4.2037642e-15 0
-10.000002 -4.3146163e-15 0
-10.000002 -1.814218e-16 0
-10.000002 8.6229942e-17 0
-10.000002 4.4868712e-15 0
-10.000002 -4.4930013e-15 0
-10.000002 -1.5399835e-17 0
-10.000002 1.764732e-16 0
-10.000002 -1.3514124e-14 0
-10.000002 1.7719175e-11 0
-10.000002 -6.3506347e-08 0
-10.000001 1.4905018e-07 0
-10 -5.8659925e-06 0
-10 -0.0075459724 0
-10 0.0075459725 0
-10 5.6510443e-06 0
-10 -4.0811076e-07 0
-10 -3.7737137e-11 0
-10 4.2433759e-12 0
-10 5.8738413e-16 0
-10 -2.0106039e-17 0
-10 -2.1454537e-15 0
-10 5.0413049e-15 0
-10 -4.3399656e-15 0
-10 -7.38283e-17 0
-10 4.2022874e-15 0
-10 -4.3165007e-15 0
-10 -1.8029238e-16 0
-10 8.7544136e-17 0
-10 4.4874877e-15 0
-10 -4.4929806e-15 0
-10 -1.5529916e-17 0
-10 1.814858e-16 0
-10 1.9421678e-15 0
-10 -4.2433692e-12 0
-10 3.7735089e-11 0
-10 4.0811076e-07 0
-10 -5.6510443e-06 0
-10 -0.0075459725 0
-10 0.0075459725 0
-10 5.6510443e-06 0
-10 -4.0811078e-07 0
-10 -3.7719726e-11 0
-10 4.2552466e-12 0
-10 5.852183e-16 0
-10 -2.0076254e-17 0
-10 -2.145742e-15 0
-10 5.0417521e-15 0
-10 -4.3398935e-15 0
-10 -7.3301231e-17 0
-10 4.2031182e-15 0
-10 -4.3161645e-15 0
-10 -1.8016165e-16 0
-10 8.7329584e-17 0
-10 4.4872546e-15 0
-10 -4.4932557e-15 0
-10 -1.5516082e-17 0
-10 1.8168686e-16 0
-10 1.9438613e-15 0
-10 -4.2552473e-12 0
-10 3.7717674e-11 0
-10 4.0811078e-07 0
-10 -5.6510443e-06 0
-10 -0.0075459725 0
-10 0.0075459724 0
-10 5.6510434e-06 0
-10 -4.0811076e-07 0
-10 -3.7718881e-11 0
-10 4.2552295e-12 0
-10 5.8495532e-16 0
-10 -2.0045718e-17 0
-10 -2.1450748e-15 0
-10 5.0412932e-15 0
-10 -4.3396386e-15 0
-10 -7.333348e-17 0
-10 4.2029687e-15 0
-10 -4.315822e-15 0
-10 -1.8096032e-16 0
-10 8.7333246e-17 0
-10 4.4873814e-15 0
-10 -4.4936857e-15 0
-10 -1.5517962e-17 0
-10 1.8216083e-16 0
-10 1.944205e-15 0
-10 -4.255245e-12 0
-10 3.7716866e-11 0
-10 4.0811076e-07 0
-10 -5.6510434e-06 0
-10 -0.0075459724 0
-9.9999996 0.0075459794 0
-9.9999996 5.6507336e-06 0
-9.9999996 -4.0812703e-07 0
-9.9999996 -3.7681647e-11 0
-9.9999996 4.2553413e-12 0
-9.9999996 5.8456311e-16 0
-9.9999996 -1.9894966e-17 0
-9.9999996 -2.1441395e-15 0
-9.9999996 5.0413511e-15 0
-9.9999996 -4.3393109e-15 0
-9.9999996 -7.2601532e-17 0
-9.9999996 4.2039958e-15 0
-9.9999996 -4.3138887e-15 0
-9.9999996 -1.8232563e-16 0
-9.9999996 8.6562454e-17 0
-9.9999996 4.4865414e-15 0
-9.9999996 -4.4936142e-15 0
-9.9999996 -1.5517834e-17 0
-9.9999996 1.8207883e-16 0
-9.9999996 1.9448736e-15 0
-9.9999996 -4.2553706e-12 0
-9.9999996 3.7679192e-11 0
-9.9999996 4.0812703e-07 0
-9.9999996 -5.6507336e-06 0
-9.9999996 -0.0075459794 0
-10.000009 0.0075472093 0
-10.000006 5.7931592e-06 0
-10.000006 -4.0867456e-07 0
-10.000006 -3.9201584e-11 0
-10.000006 4.261448e-12 0
-10.000006 5.8707617e-16 0
-10.000006 -2.0183875e-17 0
-10.000006 -2.1461944e-15 0
-10.000006 5.0421331e-15 0
-10.000006 -4.3404471e-15 0
-10.000006 -7.3872032e-17 0
-10.000006 4.20269e-15 0
-10.000006 -4.317971e-15 0
-10.000006 -1.7969809e-16 0
-10.000006 8.7904516e-17 0
-10.000006 4.4885784e-15 0
-10.000006 -4.4945014e-15 0
-10.000006 -1.5518394e-17 0
-10.000006 1.8245419e-16 0
-10.000006 1.9359603e-15 0
-10.000006 -4.2614856e-12 0
-10.000006 3.9199341e-11 0
-10.000006 4.0867455e-07 0
-10.000006 -5.7931592e-06 0
-10.000009 -0.0075472093 0
-10.00713 0.0071301077 0
-10.007547 9.2764353e-06 0
-10.007546 -3.9888716e-07 0
-10.007546 -1.0732158e-10 0
-10.007546 4.193733e-12 0
-10.007546 1.009018e-15 0
-10.007546 -2.0429025e-17 0
-10.007546 -2.0952709e-15 0
-10.007546 4.9138473e-15 0
-10.007546 -4.2314218e-15 0
-10.007546 -7.5199731e-17 0
-10.007546 4.0917892e-15 0
-10.007546 -4.2155246e-15 0
-10.007546 -1.7096802e-16 0
-10.007546 8.9671668e-17 0
-10.007546 4.3777027e-15 0
-10.007546 -4.3812134e-15 0
-10.007546 -1.5518385e-17 0
-10.007546 1.7895098e-16 0
-10.007546 1.4702658e-15 0
-10.007546 -4.1931332e-12 0
-10.007546 1.0731723e-10 0
-10.007546 3.9888716e-07 0
-10.007547 -9.2764353e-06 0
-10.00713 -0.0071301077 0
-3.5254552 7.5346437 0
6.4400359 -7.9273104 0
-7.5861169 1.6402581 0
-11.797708 0.050930051 0
-7.9100525 4.5414114 0
10.462526 1.2730241 0
-10.006758 0.0086439165 0
-10.009806 -0.0044733835 0
-10.009818 -5.7641594e-07 0
-10.009818 2.9585846e-07 0
-10.009817 -0.0043926719 0
-10.009706 -0.048491486 0
-8.9652641 -4.4550884 0
-10.009688 0.04947803 0
-10.009818 -4.6997293e-06 0
-10.009818 1.2997924e-08 0
-10.009818 8.350993e-07 0
-10.009807 2.6053796e-06 0
-10.007504 -0.0059202412 0
2.5991009 -8.8408659 0
-5.8569686 6.2675143 0
-10.274633 0.20041828 0
-7.5422629 -1.8568473 0
6.3156479 8.58707 0
-3.5248324 -7.5348656 0
2.631046 -13.726701 0
-8.1248915 -2.621347 0
5.4307386 -9.7923127 0
-10.109845 1.6811196 0
-5.0767153 -6.5719006 0
-11.462962 7.3079133 0
-10.036313 -0.065905287 0
10.007777 0.0071993432 0
10.011833 -5.1369765e-06 0
10.011839 -2.8156461e-07 0
10.011838 0.0042278082 0
10.011756 0.039953292 0
9.3301684 3.7101528 0
10.011765 -0.040748405 0
10.011839 3.8181947e-06 0
10.011839 -1.1551006e-08 0
10.011833 4.6610548e-06 0
10.007842 -0.0029056286 0
-10.025842 0.049948868 0
2.5575781 4.8214191 0
1.1457829 -7.8080972 0
-10.107103 -1.4113688 0
5.4445983 9.7815611 0
-8.1248833 2.6213467 0
2.631046 13.726701 0
-9.3113587 0.074322805 0
-10.25144 1.7206138 0
0.15759037 5.3259678 0
9.2349886 8.6390993 0
9.9992249 -0.1070906 0
5.6784955 -1.2999616 0
-1.7165135 18.393693 0
-10.040717 -0.032779061 0
-10.008793 -2.7733211e-05 0
-10.008787 1.8232474e-07 0
-10.008786 -0.004099439 0
-10.008713 -0.038240201 0
-9.3216163 -3.5627738 0
-10.0087 0.038970634 0
-10.008787 -3.3740908e-06 0
-10.008787 8.7365161e-08 0
-10.008793 2.8062571e-05 0
-10.039723 0.02767091 0
-1.7876352 -18.379993 0
3.6167792 -10.486745 0
10.000172 0.26690602 0
-7.5220543 -0.86858699 0
-0.74547762 -5.6997076 0
-9.7179619 -2.5121365 0