# vtk DataFile Version 4.0
hesp visualization file
ASCII
DATASET UNSTRUCTURED_GRID
POINTS 1250 double
30.182155 1.1800655 4
30.177085 2.2463358 4
30.177082 3.3673857 4
30.177082 4.4898482 4
30.177082 5.6123102 4
30.177082 6.7347723 4
30.177082 7.8572343 4
30.177082 8.9796964 4
30.177082 10.102158 4
30.177082 11.22462 4
30.177082 12.347083 4
30.177082 13.469545 4
30.177082 14.592007 4
30.177082 15.714469 4
30.177082 16.836931 4
30.177082 17.959393 4
30.177082 19.081855 4
30.177082 20.204317 4
30.177082 21.326779 4
30.177082 22.449241 4
30.177082 23.571703 4
30.177082 24.694165 4
30.177082 25.816628 4
30.177085 26.937678 4
30.182155 28.003948 4
31.144732 1.0490187 4
31.149621 2.2430897 4
31.149624 3.3673866 4
31.149624 4.4898482 4
31.149624 5.6123102 4
31.149624 6.7347723 4
31.149624 7.8572343 4
31.149624 8.9796964 4
31.149624 10.102158 4
31.149624 11.22462 4
31.149624 12.347083 4
31.149624 13.469545 4
31.149624 14.592007 4
31.149624 15.714469 4
31.149624 16.836931 4
31.149624 17.959393 4
31.149624 19.081855 4
31.149624 20.204317 4
31.149624 21.326779 4
31.149624 22.449241 4
31.149624 23.571703 4
31.149624 24.694165 4
31.149624 25.816627 4
31.149621 26.940924 4
31.144732 28.134995 4
31.5082 1.1921766 4
31.503789 2.2466733 4
31.503786 3.3673857 4
31.503786 4.4898482 4
31.503786 5.6123102 4
31.503786 6.7347723 4
31.503786 7.8572343 4
31.503786 8.9796964 4
31.503786 10.102158 4
31.503786 11.22462 4
31.503786 12.347083 4
31.503786 13.469545 4
31.503786 14.592007 4
31.503786 15.714469 4
31.503786 16.836931 4
31.503786 17.959393 4
31.503786 19.081855 4
31.503786 20.204317 4
31.503786 21.326779 4
31.503786 22.449241 4
31.503786 23.571703 4
31.503786 24.694165 4
31.503786 25.816628 4
31.503789 26.93734 4
31.5082 27.991837 4
32.471661 1.0677134 4
32.476255 2.2435212 4
32.476258 3.3673864 4
32.476258 4.4898482 4
32.476258 5.6123102 4
32.476258 6.7347723 4
32.476258 7.8572343 4
32.476258 8.9796964 4
32.476258 10.102158 4
32.476258 11.22462 4
32.476258 12.347083 4
32.476258 13.469545 4
32.476258 14.592007 4
32.476258 15.714469 4
32.476258 16.836931 4
32.476258 17.959393 4
32.476258 19.081855 4
32.476258 20.204317 4
32.476258 21.326779 4
32.476258 22.449241 4
32.476258 23.571703 4
32.476258 24.694165 4
32.476258 25.816627 4
32.476255 26.940492 4
32.471661 28.1163 4
32.83056 1.1347021 4
32.830436 2.2452284 4
32.830436 3.3673861 4
32.830436 4.4898482 4
32.830436 5.6123102 4
32.830436 6.7347723 4
32.830436 7.8572343 4
32.830436 8.9796964 4
32.830436 10.102158 4
32.830436 11.22462 4
32.830436 12.347083 4
32.830436 13.469545 4
32.830436 14.592007 4
32.830436 15.714469 4
32.830436 16.836931 4
32.830436 17.959393 4
32.830436 19.081855 4
32.830436 20.204317 4
32.830436 21.326779 4
32.830436 22.449241 4
32.830436 23.571703 4
32.830436 24.694165 4
32.830436 25.816627 4
32.830436 26.938785 4
32.83056 28.049311 4
33.802354 1.1153111 4
33.802464 2.2447273 4
33.802465 3.3673862 4
33.802465 4.4898482 4
33.802465 5.6123102 4
33.802465 6.7347723 4
33.802465 7.8572343 4
33.802465 8.9796964 4
33.802465 10.102158 4
33.802465 11.22462 4
33.802465 12.347083 4
33.802465 13.469545 4
33.802465 14.592007 4
33.802465 15.714469 4
33.802465 16.836931 4
33.802465 17.959393 4
33.802465 19.081855 4
33.802465 20.204317 4
33.802465 21.326779 4
33.802465 22.449241 4
33.802465 23.571703 4
33.802465 24.694165 4
33.802465 25.816627 4
33.802464 26.939286 4
33.802354 28.068702 4
34.157025 1.1230649 4
34.157024 2.2449279 4
34.157024 3.3673861 4
34.157024 4.4898482 4
34.157024 5.6123102 4
34.157024 6.7347723 4
34.157024 7.8572343 4
34.157024 8.9796964 4
34.157024 10.102158 4
34.157024 11.22462 4
34.157024 12.347083 4
34.157024 13.469545 4
34.157024 14.592007 4
34.157024 15.714469 4
34.157024 16.836931 4
34.157024 17.959393 4
34.157024 19.081855 4
34.157024 20.204317 4
34.157024 21.326779 4
34.157024 22.449241 4
34.157024 23.571703 4
34.157024 24.694165 4
34.157024 25.816627 4
34.157024 26.939085 4
34.157025 28.060948 4
35.279696 1.1230664 4
35.279696 2.2449279 4
35.279696 3.3673861 4
35.279696 4.4898482 4
35.279696 5.6123102 4
35.279696 6.7347723 4
35.279696 7.8572343 4
35.279696 8.9796964 4
35.279696 10.102158 4
35.279696 11.22462 4
35.279696 12.347083 4
35.279696 13.469545 4
35.279696 14.592007 4
35.279696 15.714469 4
35.279696 16.836931 4
35.279696 17.959393 4
35.279696 19.081855 4
35.279696 20.204317 4
35.279696 21.326779 4
35.279696 22.449241 4
35.279696 23.571703 4
35.279696 24.694165 4
35.279696 25.816627 4
35.279696 26.939085 4
35.279696 28.060947 4
36.402158 1.1230663 4
36.402158 2.2449279 4
36.402158 3.3673861 4
36.402158 4.4898482 4
36.402158 5.6123102 4
36.402158 6.7347723 4
36.402158 7.8572343 4
36.402158 8.9796964 4
36.402158 10.102158 4
36.402158 11.22462 4
36.402158 12.347083 4
36.402158 13.469545 4
36.402158 14.592007 4
36.402158 15.714469 4
36.402158 16.836931 4
36.402158 17.959393 4
36.402158 19.081855 4
36.402158 20.204317 4
36.402158 21.326779 4
36.402158 22.449241 4
36.402158 23.571703 4
36.402158 24.694165 4
36.402158 25.816627 4
36.402158 26.939085 4
36.402158 28.060947 4
37.52462 1.1230663 4
37.52462 2.2449279 4
37.52462 3.3673861 4
37.52462 4.4898482 4
37.52462 5.6123102 4
37.52462 6.7347723 4
37.52462 7.8572343 4
37.52462 8.9796964 4
37.52462 10.102158 4
37.52462 11.22462 4
37.52462 12.347083 4
37.52462 13.469545 4
37.52462 14.592007 4
37.52462 15.714469 4
37.52462 16.836931 4
37.52462 17.959393 4
37.52462 19.081855 4
37.52462 20.204317 4
37.52462 21.326779 4
37.52462 22.449241 4
37.52462 23.571703 4
37.52462 24.694165 4
37.52462 25.816627 4
37.52462 26.939085 4
37.52462 28.060947 4
38.647083 1.1230663 4
38.647083 2.2449279 4
38.647083 3.3673861 4
38.647083 4.4898482 4
38.647083 5.6123102 4
38.647083 6.7347723 4
38.647083 7.8572343 4
38.647083 8.9796964 4
38.647083 10.102158 4
38.647083 11.22462 4
38.647083 12.347083 4
38.647083 13.469545 4
38.647083 14.592007 4
38.647083 15.714469 4
38.647083 16.836931 4
38.647083 17.959393 4
38.647083 19.081855 4
38.647083 20.204317 4
38.647083 21.326779 4
38.647083 22.449241 4
38.647083 23.571703 4
38.647083 24.694165 4
38.647083 25.816627 4
38.647083 26.939085 4
38.647083 28.060947 4
39.769545 1.1230663 4
39.769545 2.2449279 4
39.769545 3.3673861 4
39.769545 4.4898482 4
39.769545 5.6123102 4
39.769545 6.7347723 4
39.769545 7.8572343 4
39.769545 8.9796964 4
39.769545 10.102158 4
39.769545 11.22462 4
39.769545 12.347083 4
39.769545 13.469545 4
39.769545 14.592007 4
39.769545 15.714469 4
39.769545 16.836931 4
39.769545 17.959393 4
39.769545 19.081855 4
39.769545 20.204317 4
39.769545 21.326779 4
39.769545 22.449241 4
39.769545 23.571703 4
39.769545 24.694165 4
39.769545 25.816627 4
39.769545 26.939085 4
39.769545 28.060947 4
40.892007 1.1230663 4
40.892007 2.2449279 4
40.892007 3.3673861 4
40.892007 4.4898482 4
40.892007 5.6123102 4
40.892007 6.7347723 4
40.892007 7.8572343 4
40.892007 8.9796964 4
40.892007 10.102158 4
40.892007 11.22462 4
40.892007 12.347083 4
40.892007 13.469545 4
40.892007 14.592007 4
40.892007 15.714469 4
40.892007 16.836931 4
40.892007 17.959393 4
40.892007 19.081855 4
40.892007 20.204317 4
40.892007 21.326779 4
40.892007 22.449241 4
40.892007 23.571703 4
40.892007 24.694165 4
40.892007 25.816627 4
40.892007 26.939085 4
40.892007 28.060947 4
42.014469 1.1230663 4
42.014469 2.2449279 4
42.014469 3.3673861 4
42.014469 4.4898482 4
42.014469 5.6123102 4
42.014469 6.7347723 4
42.014469 7.8572343 4
42.014469 8.9796964 4
42.014469 10.102158 4
42.014469 11.22462 4
42.014469 12.347083 4
42.014469 13.469545 4
42.014469 14.592007 4
42.014469 15.714469 4
42.014469 16.836931 4
42.014469 17.959393 4
42.014469 19.081855 4
42.014469 20.204317 4
42.014469 21.326779 4
42.014469 22.449241 4
42.014469 23.571703 4
42.014469 24.694165 4
42.014469 25.816627 4
42.014469 26.939085 4
42.014469 28.060947 4
43.136931 1.1230663 4
43.136931 2.2449279 4
43.136931 3.3673861 4
43.136931 4.4898482 4
43.136931 5.6123102 4
43.136931 6.7347723 4
43.136931 7.8572343 4
43.136931 8.9796964 4
43.136931 10.102158 4
43.136931 11.22462 4
43.136931 12.347083 4
43.136931 13.469545 4
43.136931 14.592007 4
43.136931 15.714469 4
43.136931 16.836931 4
43.136931 17.959393 4
43.136931 19.081855 4
43.136931 20.204317 4
43.136931 21.326779 4
43.136931 22.449241 4
43.136931 23.571703 4
43.136931 24.694165 4
43.136931 25.816627 4
43.136931 26.939085 4
43.136931 28.060947 4
44.259393 1.1230663 4
44.259393 2.2449279 4
44.259393 3.3673861 4
44.259393 4.4898482 4
44.259393 5.6123102 4
44.259393 6.7347723 4
44.259393 7.8572343 4
44.259393 8.9796964 4
44.259393 10.102158 4
44.259393 11.22462 4
44.259393 12.347083 4
44.259393 13.469545 4
44.259393 14.592007 4
44.259393 15.714469 4
44.259393 16.836931 4
44.259393 17.959393 4
44.259393 19.081855 4
44.259393 20.204317 4
44.259393 21.326779 4
44.259393 22.449241 4
44.259393 23.571703 4
44.259393 24.694165 4
44.259393 25.816627 4
44.259393 26.939085 4
44.259393 28.060947 4
45.381855 1.1230663 4
45.381855 2.2449279 4
45.381855 3.3673861 4
45.381855 4.4898482 4
45.381855 5.6123102 4
45.381855 6.7347723 4
45.381855 7.8572343 4
45.381855 8.9796964 4
45.381855 10.102158 4
45.381855 11.22462 4
45.381855 12.347083 4
45.381855 13.469545 4
45.381855 14.592007 4
45.381855 15.714469 4
45.381855 16.836931 4
45.381855 17.959393 4
45.381855 19.081855 4
45.381855 20.204317 4
45.381855 21.326779 4
45.381855 22.449241 4
45.381855 23.571703 4
45.381855 24.694165 4
45.381855 25.816627 4
45.381855 26.939085 4
45.381855 28.060947 4
46.504317 1.1230663 4
46.504317 2.2449279 4
46.504317 3.3673861 4
46.504317 4.4898482 4
46.504317 5.6123102 4
46.504317 6.7347723 4
46.504317 7.8572343 4
46.504317 8.9796964 4
46.504317 10.102158 4
46.504317 11.22462 4
46.504317 12.347083 4
46.504317 13.469545 4
46.504317 14.592007 4
46.504317 15.714469 4
46.504317 16.836931 4
46.504317 17.959393 4
46.504317 19.081855 4
46.504317 20.204317 4
46.504317 21.326779 4
46.504317 22.449241 4
46.504317 23.571703 4
46.504317 24.694165 4
46.504317 25.816627 4
46.504317 26.939085 4
46.504317 28.060947 4
47.626779 1.1230663 4
47.626779 2.2449279 4
[...]
POINT_DATA 1250
SCALARS m double
LOOKUP_TABLE default
1
1
1
1
1
1
1
1
1
1
1
1
1
1
1
1
1
1
1
1
1
1
1
1
1
1
1
1
1
1
1
1
1
1
1
1
1
1
1
1
1
1
1
1
1
1
1
1
1
1
1
1
1
1
1
1
1
1
1
1
1
1
1
1
1
1
1
1
1
1
1
1
1
1
1
1
1
1
1
1
1
1
1
1
1
1
1
1
1
1
1
1
1
1
1
1
1
1
1
1
1
1
1
1
1
1
1
1
1
1
1
1
1
1
1
1
1
1
1
1
1
1
1
1
1
1
1
1
1
1
1
1
1
1
1
1
1
1
1
1
1
1
1
1
1
1
1
1
1
1
1
1
1
1
1
1
1
1
1
1
1
1
1
1
1
1
1
1
1
1
1
1
1
1
1
1
1
1
1
1
1
1
1
1
1
1
1
1
1
1
1
1
1
1
1
1
1
1
1
1
1
1
1
1
1
1
1
1
1
1
1
1
1
1
1
1
1
1
1
1
1
1
1
1
1
1
1
1
1
1
1
1
1
1
1
1
1
1
1
1
1
1
1
1
1
1
1
1
1
1
1
1
1
1
1
1
1
1
1
1
1
1
1
1
1
1
1
1
1
1
1
1
1
1
1
1
1
1
1
1
1
1
1
1
1
1
1
1
1
1
1
1
1
1
1
1
1
1
1
1
1
1
1
1
1
1
1
1
1
1
1
1
1
1
1
1
1
1
1
1
1
1
1
1
1
1
1
1
1
1
1
1
1
1
1
1
1
1
1
1
1
1
1
1
1
1
1
1
1
1
1
1
1
1
1
1
1
1
1
1
1
1
1
1
1
1
1
1
1
1
1
1
1
1
1
1
1
1
1
1
1
1
1
1
1
1
1
1
1
1
1
1
1
1
1
1
1
1
1
1
1
1
1
1
1
1
1
1
1
1
1
1
1
1
1
1
1
1
1
1
1
1
1
1
1
1
1
1
1
1
1
1
1
1
1
1
1
1
1
1
1
1
1
1
1
1
1
1
1
1
1
1
1
1
1
1
1
1
1
1
1
1
1
1
1
1
1
1
1
1
1
1
1
1
1
1
1
1
1
1
1
1
1
1
1
1
1
1
1
1
1
1
1
1
1
1
1
1
1
1
1
1
1
1
1
1
1
1
1
1
1
1
1
1
1
1
1
1
1
1
1
1
1
1
1
1
1
1
1
1
1
1
1
1
1
1
1
1
1
1
1
1
1
1
1
1
1
1
1
1
1
1
1
1
1
1
1
1
1
1
1
1
1
1
1
1
1
1
1
1
1
1
1
1
1
1
1
1
1
1
1
1
1
1
1
1
1
1
1
1
1
1
1
1
1
1
1
1
1
1
1
1
1
1
1
1
1
1
1
1
1
1
1
1
1
1
1
1
1
1
1
1
1
1
1
1
1
1
1
1
1
1
1
1
1
1
1
1
1
1
1
1
1
1
1
1
1
1
1
1
1
1
1
1
1
1
1
1
1
1
1
1
1
1
1
1
1
1
1
1
1
1
1
1
1
1
1
1
1
1
1
1
1
1
1
1
1
1
1
1
1
1
1
1
1
1
1
1
1
1
1
1
1
1
1
1
1
1
1
1
1
1
1
1
1
1
1
1
1
1
1
1
1
1
1
1
1
1
1
1
1
1
1
1
1
1
1
1
1
1
1
1
1
1
1
1
1
1
1
1
1
1
1
1
1
1
1
1
1
1
1
1
1
1
1
1
1
1
1
1
1
1
1
1
1
1
1
1
1
1
1
1
1
1
1
1
1
1
1
1
1
1
1
1
1
1
1
1
1
1
1
1
1
1
1
1
1
1
1
1
1
1
1
1
1
1
1
1
1
1
1
1
1
1
1
1
1
1
1
1
1
1
1
1
1
1
1
1
1
1
1
1
1
1
1
1
1
1
1
1
1
1
1
1
1
1
1
1
1
1
1
1
1
1
1
1
1
1
1
1
1
1
1
1
1
1
1
1
1
1
1
1
1
1
1
1
1
1
1
1
1
1
1
1
1
1
1
1
1
1
1
1
1
1
1
1
1
1
1
1
1
1
1
1
1
1
1
1
1
1
1
1
1
1
1
1
1
1
1
1
1
1
1
1
1
1
1
1
1
1
1
1
1
1
1
1
1
1
1
1
1
1
1
1
1
1
1
1
1
1
1
1
1
1
1
1
1
1
1
1
1
1
1
1
1
1
1
1
1
1
1
1
1
1
1
1
1
1
1
1
1
1
1
1
1
1
1
1
1
1
1
1
1
1
1
1
1
1
1
1
1
1
1
1
1
1
1
1
1
1
1
1
1
1
1
1
1
1
1
1
1
1
1
1
1
1
1
1
1
1
1
1
1
1
1
1
1
1
1
1
1
1
1
1
1
1
1
1
1
1
1
1
1
1
1
1
1
1
1
1
1
1
1
1
1
1
1
1
1
1
1
1
1
1
1
1
1
1
1
1
1
1
1
1
1
1
1
1
1
1
1
1
1
1
1
1
1
1
1
1
1
1
1
1
1
1
1
1
1
1
1
1
1
1
1
1
1
1
1
1
1
1
1
1
1
1
1
1
1
1
1
1
1
1
1
1
1
1
1
1
1
1
1
1
1
1
1
1
1
1
1
1
1
1
1
1
1
1
1
1
1
1
1
1
1
1
1
1
1
1
1
1
1
1
1
1
1
1
1
1
1
1
1
1
1
1
1
1
1
1
1
1
1
1
1
1
1
1
1
1
1
1
1
1
1
1
1
1
1
1
1
1
1
1
1
1
1
1
1
1
1
1
1
1
1
1
1
1
1
1
1
1
1
1
1
1
1
1
1
1
VECTORS v double
-9.9277801 1.4271841 0
-10.049187 0.035199049 0
-10.049246 -1.0900455e-05 0
-10.049245 -3.2531696e-08 0
-10.049245 -1.929349e-09 0
-10.049245 2.9317182e-13 0
-10.049245 -1.1401898e-13 0
-10.049245 -4.5705545e-13 0
-10.049245 3.1017871e-15 0
-10.049245 -2.3054543e-13 0
-10.049245 -4.5576339e-13 0
-10.049245 -6.8914174e-13 0
-10.049245 3.7784122e-11 0
-10.049245 6.8923988e-13 0
-10.049245 4.5577869e-13 0
-10.049245 4.5850796e-13 0
-10.049245 -2.7596229e-15 0
-10.049245 -1.382295e-17 0
-10.049245 1.0491323e-16 0
-10.049245 -4.5978854e-13 0
-10.049245 -3.3846954e-12 0
-10.049245 3.2590128e-08 0
-10.049246 1.0908537e-05 0
-10.049187 -0.03519904 0
-9.9277801 -1.4271841 0
9.92244 -1.6127857 0
10.050023 -0.039937352 0
10.050099 1.1734056e-05 0
10.050099 6.2549289e-09 0
10.050099 1.7690936e-09 0
10.050099 9.1791659e-14 0
10.050099 -6.6472581e-14 0
10.050099 -2.6723286e-13 0
10.050099 2.965795e-15 0
10.050099 -1.3554453e-13 0
10.050099 -2.6601913e-13 0
10.050099 -3.9596611e-13 0
10.050099 -3.17135e-11 0
10.050099 3.9939136e-13 0
10.050099 2.660266e-13 0
10.050099 2.6862028e-13 0
10.050099 -2.6391792e-15 0
10.050099 -1.2869543e-17 0
10.050099 1.0069252e-16 0
10.050099 -2.6659346e-13 0
10.050099 -2.2830489e-14 0
10.050099 -6.3321134e-09 0
10.050099 -1.1743182e-05 0
10.050023 0.039937343 0
9.92244 1.6127857 0
-9.9316726 1.5241355 0
-10.048036 0.038340172 0
-10.048111 -9.6739499e-06 0
-10.048111 -2.3406988e-08 0
-10.048111 -3.7235246e-10 0
-10.048111 1.7015104e-13 0
-10.048111 -8.50601e-14 0
-10.048111 -3.4084327e-13 0
-10.048111 2.8195203e-15 0
-10.048111 -1.7225315e-13 0
-10.048111 -3.3968462e-13 0
-10.048111 -5.0678893e-13 0
-10.048111 -7.9928599e-13 0
-10.048111 5.0969617e-13 0
-10.048111 3.3970017e-13 0
-10.048111 3.4216005e-13 0
-10.048111 -2.5101887e-15 0
-10.048111 -1.172422e-17 0
-10.048111 9.6460859e-17 0
-10.048111 -3.3870241e-13 0
-10.048111 -1.1838428e-12 0
-10.048111 2.356548e-08 0
-10.048111 9.6827157e-06 0
-10.048036 -0.038340164 0
-9.9316726 -1.5241355 0
9.9401664 -1.3605645 0
10.050352 -0.034549332 0
10.050431 8.1478249e-06 0
10.050432 2.0265816e-08 0
10.050432 3.1096364e-10 0
10.050432 2.0202759e-13 0
10.050432 -1.0312573e-13 0
10.050432 -4.1367838e-13 0
10.050432 2.6729005e-15 0
10.050432 -2.0857554e-13 0
10.050432 -4.1258285e-13 0
10.050432 -6.1657607e-13 0
10.050432 -8.2741297e-13 0
10.050432 6.1872616e-13 0
10.050432 4.1259148e-13 0
10.050432 4.1492631e-13 0
10.050432 -2.3798161e-15 0
10.050432 -1.0578844e-17 0
10.050432 9.0824113e-17 0
10.050432 -4.1147231e-13 0
10.050432 -3.2290126e-13 0
10.050432 -2.041658e-08 0
10.050431 -8.1557452e-06 0
10.050352 0.034549324 0
9.9401664 1.3605645 0
-10.04139 0.24703629 0
-10.046984 0.0063072886 0
-10.046992 -8.5607558e-07 0
-10.046993 4.9542444e-10 0
-10.046993 7.0202358e-13 0
-10.046993 3.990559e-14 0
-10.046993 -2.2374864e-14 0
-10.046993 -9.0433827e-14 0
-10.046993 2.5264686e-15 0
-10.046993 -4.6856915e-14 0
-10.046993 -8.939771e-14 0
-10.046993 -1.3193289e-13 0
-10.046993 -1.808862e-13 0
-10.046993 1.3394833e-13 0
-10.046993 8.9405456e-14 0
-10.046993 9.1611691e-14 0
-10.046993 -2.2503677e-15 0
-10.046993 -9.4316594e-18 0
-10.046993 8.6348165e-17 0
-10.046993 -8.572955e-14 0
-10.046993 4.8553738e-13 0
-10.046993 -4.5140414e-10 0
-10.046992 8.5754515e-07 0
-10.046984 -0.0063072872 0
-10.04139 -0.24703629 0
10.046121 -0.19903462 0
10.048785 -0.0052105937 0
10.048789 8.5692169e-07 0
10.048789 1.3412772e-09 0
10.048789 2.4783436e-13 0
10.048789 2.4371527e-14 0
10.048789 -1.2066917e-14 0
10.048789 -4.9264547e-14 0
10.048789 2.3813796e-15 0
10.048789 -2.6176161e-14 0
10.048789 -4.8286853e-14 0
10.048789 -7.0392709e-14 0
10.048789 -9.8542668e-14 0
10.048789 7.2291821e-14 0
10.048789 4.8293704e-14 0
10.048789 5.0372496e-14 0
10.048789 -2.1215621e-15 0
10.048789 -8.2969151e-18 0
10.048789 8.2155041e-17 0
10.048789 -4.6628546e-14 0
10.048789 -2.2427179e-13 0
10.048789 -1.3778021e-09 0
10.048789 -8.5814635e-07 0
10.048785 0.0052105925 0
10.046121 0.19903462 0
-10.045804 0.0026112775 0
-10.045893 3.0519752e-06 0
-10.045895 3.3959446e-08 0
-10.045895 4.0683801e-10 0
-10.045895 8.0869597e-15 0
-10.045895 -3.3575536e-17 0
-10.045895 5.6839418e-18 0
-10.045895 -9.163168e-16 0
-10.045895 2.237965e-15 0
-10.045895 -1.9088834e-15 0
-10.045895 2.8103796e-18 0
-10.045895 1.9189197e-15 0
-10.045895 -1.8448127e-15 0
-10.045895 -1.336407e-16 0
-10.045895 3.5717447e-18 0
-10.045895 1.9567571e-15 0
-10.045895 -1.9943081e-15 0
-10.045895 -7.1975594e-18 0
-10.045895 7.7275689e-17 0
-10.045895 1.8945194e-15 0
-10.045895 -8.9401942e-15 0
-10.045895 -4.0695815e-10 0
-10.045895 -3.3963909e-08 0
-10.045893 -3.0519795e-06 0
-10.045804 -0.0026112775 0
-10.000015 0.0032701914 0
-10.000018 1.8775358e-05 0
-10.000018 -3.8787708e-08 0
-10.000018 -7.8875859e-11 0
-10.000018 8.2699725e-14 0
-10.000018 1.0095938e-16 0
-10.000018 -2.7714607e-18 0
-10.000018 -9.3331126e-16 0
-10.000018 2.1948122e-15 0
-10.000018 -1.8892115e-15 0
-10.000018 -3.1483848e-17 0
-10.000018 1.8303181e-15 0
-10.000018 -1.8781278e-15 0
-10.000018 -7.9179849e-17 0
-10.000018 3.75008e-17 0
-10.000018 1.9532575e-15 0
-10.000018 -1.9560785e-15 0
-10.000018 -6.7512823e-18 0
-10.000018 7.5691601e-17 0
-10.000018 1.7119044e-15 0
-10.000018 -8.4027126e-14 0
-10.000018 7.8875424e-11 0
-10.000018 3.8787707e-08 0
-10.000018 -1.8775358e-05 0
-10.000015 -0.0032701914 0
-10 0.0032682759 0
-10 1.8762907e-05 0
-10 -3.9153941e-08 0
-10 -7.882283e-11 0
-10 8.2873945e-14 0
-10 1.0096961e-16 0
-10 -2.7445971e-18 0
-10 -9.3356424e-16 0
-10 2.1944335e-15 0
-10 -1.8888707e-15 0
-10 -3.1723641e-17 0
-10 1.8296133e-15 0
-10 -1.8780414e-15 0
-10 -7.8924291e-17 0
-10 3.7621883e-17 0
-10 1.9531398e-15 0
-10 -1.9557392e-15 0
-10 -6.7522814e-18 0
-10 7.5667077e-17 0
-10 1.7115386e-15 0
-10 -8.4203592e-14 0
-10 7.8822308e-11 0
-10 3.915394e-08 0
-10 -1.8762907e-05 0
-10 -0.0032682759 0
-10 0.003268276 0
-10 1.8762908e-05 0
-10 -3.9153937e-08 0
-10 -7.8822722e-11 0
-10 8.2873522e-14 0
-10 1.0092671e-16 0
-10 -2.7854718e-18 0
-10 -9.3360986e-16 0
-10 2.1945081e-15 0
-10 -1.8885589e-15 0
-10 -3.1604366e-17 0
-10 1.8297629e-15 0
-10 -1.8776945e-15 0
-10 -7.9090048e-17 0
-10 3.7484977e-17 0
-10 1.9530397e-15 0
-10 -1.9557358e-15 0
-10 -6.750473e-18 0
-10 7.5574222e-17 0
-10 1.7117543e-15 0
-10 -8.4203315e-14 0
-10 7.8822201e-11 0
-10 3.9153937e-08 0
-10 -1.8762908e-05 0
-10 -0.003268276 0
-10 0.003268276 0
-10 1.8762908e-05 0
-10 -3.9153937e-08 0
-10 -7.8822722e-11 0
-10 8.2873578e-14 0
-10 1.0100707e-16 0
-10 -2.7759334e-18 0
-10 -9.3320961e-16 0
-10 2.1943169e-15 0
-10 -1.889077e-15 0
-10 -3.1781944e-17 0
-10 1.8298077e-15 0
-10 -1.8778774e-15 0
-10 -7.9108581e-17 0
-10 3.7718532e-17 0
-10 1.9530673e-15 0
-10 -1.9557384e-15 0
-10 -6.7596119e-18 0
-10 7.5605551e-17 0
-10 1.7117049e-15 0
-10 -8.4203468e-14 0
-10 7.8822201e-11 0
-10 3.9153937e-08 0
-10 -1.8762908e-05 0
-10 -0.003268276 0
-10 0.003268276 0
-10 1.8762908e-05 0
-10 -3.9153937e-08 0
-10 -7.8822723e-11 0
-10 8.287374e-14 0
-10 1.010159e-16 0
-10 -2.729898e-18 0
-10 -9.3346612e-16 0
-10 2.1944042e-15 0
-10 -1.8888672e-15 0
-10 -3.167661e-17 0
-10 1.8296502e-15 0
-10 -1.8777205e-15 0
-10 -7.9043231e-17 0
-10 3.7867262e-17 0
-10 1.9530808e-15 0
-10 -1.9556692e-15 0
-10 -6.7521667e-18 0
-10 7.5584537e-17 0
-10 1.7116732e-15 0
-10 -8.420352e-14 0
-10 7.8822201e-11 0
-10 3.9153937e-08 0
-10 -1.8762908e-05 0
-10 -0.003268276 0
-10 0.003268276 0
-10 1.8762908e-05 0
-10 -3.9153937e-08 0
-10 -7.8822722e-11 0
-10 8.2873745e-14 0
-10 1.0092139e-16 0
-10 -2.7940959e-18 0
-10 -9.3368308e-16 0
-10 2.1945115e-15 0
-10 -1.8885447e-15 0
-10 -3.1644832e-17 0
-10 1.8297019e-15 0
-10 -1.8779281e-15 0
-10 -7.9010451e-17 0
-10 3.751041e-17 0
-10 1.9530849e-15 0
-10 -1.955731e-15 0
-10 -6.7504553e-18 0
-10 7.5567628e-17 0
-10 1.7117278e-15 0
-10 -8.4203794e-14 0
-10 7.8822202e-11 0
-10 3.9153937e-08 0
-10 -1.8762908e-05 0
-10 -0.003268276 0
-10 0.003268276 0
-10 1.8762908e-05 0
-10 -3.9153937e-08 0
-10 -7.8822722e-11 0
-10 8.2873774e-14 0
-10 1.0092662e-16 0
-10 -2.794108e-18 0
-10 -9.3320174e-16 0
-10 2.1945115e-15 0
-10 -1.8890261e-15 0
-10 -3.164488e-17 0
-10 1.8298623e-15 0
-10 -1.8779282e-15 0
-10 -7.9010379e-17 0
-10 3.7510458e-17 0
-10 1.9530849e-15 0
-10 -1.955731e-15 0
-10 -6.7504553e-18 0
-10 7.5567628e-17 0
-10 1.7117281e-15 0
-10 -8.420362e-14 0
-10 7.8822201e-11 0
-10 3.9153937e-08 0
-10 -1.8762908e-05 0
-10 -0.003268276 0
-10 0.003268276 0
-10 1.8762908e-05 0
-10 -3.9153937e-08 0
-10 -7.8822723e-11 0
-10 8.2873768e-14 0
-10 1.0101889e-16 0
-10 -2.7794981e-18 0
-10 -9.3323264e-16 0
-10 2.1943238e-15 0
-10 -1.8890854e-15 0
-10 -3.1801715e-17 0
-10 1.8297822e-15 0
-10 -1.8780811e-15 0
-10 -7.9066808e-17 0
-10 3.7732278e-17 0
-10 1.9530866e-15 0
-10 -1.9557423e-15 0
-10 -6.7596153e-18 0
-10 7.5609432e-17 0
-10 1.7116857e-15 0
-10 -8.4203543e-14 0
-10 7.8822201e-11 0
-10 3.9153937e-08 0
-10 -1.8762908e-05 0
-10 -0.003268276 0
-10 0.003268276 0
-10 1.8762908e-05 0
-10 -3.9153937e-08 0
-10 -7.8822723e-11 0
-10 8.2873751e-14 0
-10 1.0100278e-16 0
-10 -2.7301888e-18 0
-10 -9.334664e-16 0
-10 2.1944041e-15 0
-10 -1.8888665e-15 0
-10 -3.1677193e-17 0
-10 1.8296509e-15 0
-10 -1.8777198e-15 0
-10 -7.9043473e-17 0
-10 3.7866738e-17 0
-10 1.953081e-15 0
-10 -1.95567e-15 0
-10 -6.752149e-18 0
-10 7.5584912e-17 0
-10 1.711673e-15 0
-10 -8.4203665e-14 0
-10 7.8822202e-11 0
-10 3.9153937e-08 0
-10 -1.8762908e-05 0
-10 -0.003268276 0
-10 0.003268276 0
-10 1.8762908e-05 0
-10 -3.9153937e-08 0
-10 -7.8822722e-11 0
-10 8.287353e-14 0
-10 1.009198e-16 0
-10 -2.790688e-18 0
-10 -9.3365935e-16 0
-10 2.1945046e-15 0
-10 -1.8885373e-15 0
-10 -3.1630435e-17 0
-10 1.8297212e-15 0
-10 -1.8778785e-15 0
-10 -7.9051812e-17 0
-10 3.7497168e-17 0
-10 1.9530657e-15 0
-10 -1.9557272e-15 0
-10 -6.750473e-18 0
-10 7.5563814e-17 0
-10 1.7117473e-15 0
-10 -8.4203377e-14 0
-10 7.8822201e-11 0
-10 3.9153937e-08 0
-10 -1.8762908e-05 0
-10 -0.003268276 0
-10 0.003268276 0
-10 1.8762908e-05 0
-10 -3.9153937e-08 0
-10 -7.8822723e-11 0
-10 8.2873687e-14 0
-10 1.0093513e-16 0
-10 -2.7940344e-18 0
-10 -9.3320201e-16 0
-10 2.1945115e-15 0
-10 -1.8890257e-15 0
-10 -3.1645351e-17 0
-10 1.8298629e-15 0
-10 -1.8779274e-15 0
-10 -7.9010724e-17 0
-10 3.7509775e-17 0
-10 1.9530849e-15 0
-10 -1.9557313e-15 0
-10 -6.7504377e-18 0
-10 7.5567973e-17 0
-10 1.7117279e-15 0
-10 -8.420343e-14 0
-10 7.8822201e-11 0
-10 3.9153937e-08 0
-10 -1.8762908e-05 0
-10 -0.003268276 0
-10 0.003268276 0
-10 1.8762908e-05 0
-10 -3.9153937e-08 0
-10 -7.8822723e-11 0
-10 8.2873691e-14 0
-10 1.0093539e-16 0
-10 -2.7941455e-18 0
-10 -9.3320133e-16 0
-10 2.1945116e-15 0
-10 -1.8890264e-15 0
-10 -3.1644265e-17 0
-10 1.8298618e-15 0
-10 -1.8780883e-15 0
-10 -7.901025e-17 0
-10 3.7510997e-17 0
-10 1.9530848e-15 0
-10 -1.9557306e-15 0
-10 -6.750473e-18 0
-10 7.5567283e-17 0
-10 1.7117283e-15 0
-10 -8.4203431e-14 0
-10 7.8822201e-11 0
-10 3.9153937e-08 0
-10 -1.8762908e-05 0
-10 -0.003268276 0
-10 0.003268276 0
-10 1.8762908e-05 0
-10 -3.9153937e-08 0
-10 -7.8822722e-11 0
-10 8.2873522e-14 0
-10 1.010531e-16 0
-10 -2.7358622e-18 0
-10 -9.3342068e-16 0
-10 2.1944752e-15 0
-10 -1.889004e-15 0
-10 -3.1768682e-17 0
-10 1.8297616e-15 0
-10 -1.8779648e-15 0
-10 -7.9132372e-17 0
-10 3.7691015e-17 0
-10 1.9529535e-15 0
-10 -1.9556348e-15 0
-10 -6.7613233e-18 0
-10 7.5586954e-17 0
-10 1.7115247e-15 0
-10 -8.4203495e-14 0
-10 7.8822202e-11 0
-10 3.9153937e-08 0
-10 -1.8762908e-05 0
-10 -0.003268276 0
-10 0.003268276 0
-10 1.8762908e-05 0
-10 -3.9153937e-08 0
-10 -7.8822723e-11 0
-10 8.2874064e-14 0
-10 1.0119023e-16 0
-10 -2.8100861e-18 0
-10 -9.3394795e-16 0
-10 2.1947883e-15 0
-10 -1.8891259e-15 0
-10 -3.1761248e-17 0
-10 1.8298299e-15 0
-10 -1.8786368e-15 0
-10 -7.8367599e-17 0
-10 3.7812061e-17 0
-10 1.9531866e-15 0
-10 -1.9558199e-15 0
-10 -6.7533817e-18 0
-10 7.5708264e-17 0
-10 1.7109009e-15 0
-10 -8.4203627e-14 0
-10 7.8822202e-11 0
-10 3.9153937e-08 0
-10 -1.8762908e-05 0
-10 -0.003268276 0
-10 0.0032682759 0
-10 1.8762908e-05 0
-10 -3.9153937e-08 0
-10 -7.8822718e-11 0
-10 8.2873862e-14 0
-10 1.0111714e-16 0
-10 -2.7803544e-18 0
-10 -9.3349856e-16 0
-10 2.1945447e-15 0
-10 -1.889003e-15 0
-10 -3.1710696e-17 0
-10 1.82983e-15 0
-10 -1.8783479e-15 0
-10 -7.88642e-17 0
-10 3.7729672e-17 0
-10 1.95321e-15 0
-10 -1.9560184e-15 0
-10 -6.7549857e-18 0
-10 7.5943184e-17 0
-10 1.7112361e-15 0
-10 -8.4203526e-14 0
-10 7.8822195e-11 0
-10 3.9153937e-08 0
-10 -1.8762908e-05 0
-10 -0.0032682759 0
-10 0.0032682767 0
-10 1.8762903e-05 0
-10 -3.9154203e-08 0
-10 -7.8822605e-11 0
-10 8.2874124e-14 0
-10 1.0099775e-16 0
-10 -2.6824981e-18 0
-10 -9.329341e-16 0
-10 2.1943735e-15 0
-10 -1.8887423e-15 0
-10 -3.1342475e-17 0
-10 1.8303177e-15 0
-10 -1.8769913e-15 0
-10 -8.0033055e-17 0
-10 3.7442341e-17 0
-10 1.9526537e-15 0
-10 -1.9559701e-15 0
-10 -6.7547857e-18 0
-10 7.5900759e-17 0
-10 1.7116949e-15 0
-10 -8.4204204e-14 0
-10 7.8822068e-11 0
-10 3.9154202e-08 0
-10 -1.8762903e-05 0
-10 -0.0032682767 0
-10.000019 0.0032683769 0
-10.000019 1.8775253e-05 0
-10.000019 -3.9163056e-08 0
-10.000019 -7.8858182e-11 0
-10.000019 8.2900806e-14 0
-10.000019 1.0149686e-16 0
-10.000019 -2.9416612e-18 0
-10.000019 -9.347625e-16 0
-10.000019 2.194458e-15 0
-10.000019 -1.8893623e-15 0
-10.000019 -3.2668448e-17 0
-10.000019 1.8284485e-15 0
-10.000019 -1.8805548e-15 0
-10.000019 -7.7520952e-17 0
-10.000019 3.8848518e-17 0
-10.000019 1.954126e-15 0
-10.000019 -1.9563513e-15 0
-10.000019 -6.7550997e-18 0
-10.000019 7.6238466e-17 0
-10.000019 1.7102302e-15 0
-10.000019 -8.4230021e-14 0
-10.000019 7.885755e-11 0
-10.000019 3.9163056e-08 0
-10.000019 -1.8775253e-05 0
-10.000019 -0.0032683769 0
-10.003088 0.0030879133 0
-10.003268 1.9058817e-05 0
-10.003268 -3.7834201e-08 0
-10.003268 -8.0020812e-11 0
-10.003268 8.0508689e-14 0
-10.003268 1.0319022e-16 0
-10.003268 -3.1869759e-18 0
-10.003268 -9.1243977e-16 0
-10.003268 2.1386813e-15 0
-10.003268 -1.8419005e-15 0
-10.003268 -3.3140722e-17 0
-10.003268 1.7803883e-15 0
-10.003268 -1.8357199e-15 0
-10.003268 -7.3817433e-17 0
-10.003268 3.9445557e-17 0
-10.003268 1.9057295e-15 0
-10.003268 -1.9070178e-15 0
-10.003268 -6.7550617e-18 0
-10.003268 7.4838252e-17 0
-10.003268 1.6620799e-15 0
-10.003268 -8.1760929e-14 0
-10.003268 8.0019808e-11 0
-10.003268 3.7834201e-08 0
-10.003268 -1.9058817e-05 0
-10.003088 -0.0030879133 0
9.9277801 1.4271841 0
10.049187 0.035199048 0
10.049246 -1.0900879e-05 0
10.049245 -3.2397677e-08 0
10.049245 2.2055051e-09 0
10.049245 3.2608364e-13 0
10.049245 -1.9545389e-13 0
10.049245 -7.832242e-13 0
10.049245 3.10104e-15 0
10.049245 -3.9362988e-13 0
10.049245 -7.8188166e-13 0
10.049245 -1.2944699e-12 0
10.049245 -4.7239095e-11 0
10.049245 1.3020492e-12 0
10.049245 7.8190254e-13 0
10.049245 7.8467688e-13 0
10.049245 -2.7595489e-15 0
10.049245 -1.4019497e-17 0
10.049245 1.0446952e-16 0
10.049245 -7.8595814e-13 0
10.049245 -3.5756122e-12 0
10.049245 3.2757013e-08 0
10.049246 1.0908269e-05 0
10.049187 -0.035199041 0
9.9277801 -1.4271841 0
-9.92244 -1.6127857 0
-10.050023 -0.039937352 0
-10.050099 1.1734414e-05 0
-10.050099 6.0851398e-09 0
-10.050099 -2.0644657e-09 0
-10.050099 3.2635325e-13 0
-10.050099 -1.3401596e-13 0
-10.050099 -5.3721989e-13 0
-10.050099 2.9670187e-15 0
-10.050099 -2.7053751e-13 0
-10.050099 -5.3598522e-13 0
-10.050099 -6.6610649e-13 0
-10.050099 3.7801062e-11 0
-10.050099 6.681447e-13 0
-10.050099 5.3600357e-13 0
-10.050099 5.3860706e-13 0
-10.050099 -2.6397933e-15 0
-10.050099 -1.2865913e-17 0
-10.050099 1.0090102e-16 0
-10.050099 -5.3664089e-13 0
-10.050099 -4.2269061e-13 0
-10.050099 -6.5050473e-09 0
-10.050099 -1.174291e-05 0
-10.050023 0.039937343 0
-9.92244 1.6127857 0
9.9316726 1.5241355 0
10.048036 0.038340172 0
10.048111 -9.6738467e-06 0
10.048111 -2.3109107e-08 0
10.048111 5.2458938e-10 0
10.048111 1.7848815e-13 0
10.048111 -8.9887472e-14 0
10.048111 -3.6135644e-13 0
10.048111 2.8194733e-15 0
10.048111 -1.825106e-13 0
10.048111 -3.6020374e-13 0
10.048111 -5.3821893e-13 0
10.048111 -5.1847999e-13 0
10.048111 5.3981327e-13 0
10.048111 3.6020695e-13 0
10.048111 3.6267437e-13 0
10.048111 -2.5095755e-15 0
10.048111 -1.1725381e-17 0
10.048111 9.5576413e-17 0
10.048111 -3.5924482e-13 0
10.048111 -1.2009197e-12 0
10.048111 2.3725479e-08 0
10.048111 9.6825242e-06 0
10.048036 -0.038340163 0
9.9316726 -1.5241355 0
-9.9401664 -1.3605645 0
-10.050352 -0.034549332 0
-10.050431 8.1477165e-06 0
-10.050432 1.9986197e-08 0
-10.050432 -4.3377709e-10 0
-10.050432 1.120115e-13 0
-10.050432 -5.1928281e-14 0
-10.050432 -2.0873252e-13 0
-10.050432 2.6731168e-15 0
-10.050432 -1.0610298e-13 0
-10.050432 -2.0763698e-13 0
-10.050432 -3.0917568e-13 0
-10.050432 -4.1745203e-13 0
-10.050432 3.1128987e-13 0
-10.050432 2.0764562e-13 0
-10.050432 2.0998107e-13 0
-10.050432 -2.3796863e-15 0
-10.050432 -1.0589158e-17 0
-10.050432 9.0922769e-17 0
-10.050432 -2.0648277e-13 0
-10.050432 -3.629199e-13 0
-10.050432 -2.0566885e-08 0
-10.050431 -8.1555701e-06 0
-10.050352 0.034549324 0
-9.9401664 1.3605645 0
10.04139 0.24703629 0
10.046984 0.0063072886 0
10.046992 -8.5602561e-07 0
10.046993 5.6942506e-10 0
10.046993 -1.6702516e-12 0
10.046993 2.0028644e-13 0
10.046993 -9.8665922e-14 0
10.046993 -3.9588266e-13 0
10.046993 2.5269102e-15 0
10.046993 -1.9958215e-13 0
10.046993 -3.9484658e-13 0
10.046993 -5.9010735e-13 0
10.046993 -7.9177928e-13 0
10.046993 5.9212029e-13 0
10.046993 3.9485426e-13 0
10.046993 3.9706147e-13 0
10.046993 -2.2498853e-15 0