# vtk DataFile Version 4.0
hesp visualization file
ASCII
DATASET UNSTRUCTURED_GRID
POINTS 32 double
-0.33746776 0.47548495 4
-1.4195737 2.1632534 4
-1.4195737 3.4490569 4
-0.33746776 5.1368253 4
-0.04828721 -1.8167809 4
0.76699912 1.750014 4
0.76699912 3.8622962 4
-0.04828721 7.4290911 4
5.1519915 -4.4780193 4
2.6562323 -0.39631246 4
2.6562323 6.0086227 4
5.1519915 10.09033 4
8.2840535 -4.7933637 4
9.1789952 1.2833855 4
9.1789952 4.3289247 4
8.2840535 10.405674 4
13.328257 -4.7933637 4
12.433315 1.2833855 4
12.433315 4.3289247 4
13.328257 10.405674 4
16.460319 -4.4780193 4
18.956078 -0.39631246 4
18.956078 6.0086227 4
16.460319 10.09033 4
21.660597 -1.8167809 4
20.845311 1.750014 4
20.845311 3.8622962 4
21.660597 7.4290911 4
21.949778 0.47548495 4
23.031884 2.1632534 4
23.031884 3.4490569 4
21.949778 5.1368253 4
CELLS 0 0
CELL_TYPES 0
POINT_DATA 32
SCALARS m double
LOOKUP_TABLE default
1
1
1
1
1
1
1
1
1
1
1
1
1
1
1
1
1
1
1
1
1
1
1
1
1
1
1
1
1
1
1
1
VECTORS v double
-10.567425 -1.2268908 0
-11.939857 0.032303198 0
-11.939857 -0.032303198 0
-10.567425 1.2268908 0
-12.473841 -4.5609593 0
-9.7541429 -0.23604234 0
-9.7541429 0.23604234 0
-12.473841 4.5609593 0
-6.2407211 -8.7278191 0
-8.3070695 -3.1852584 0
-8.3070695 3.1852584 0
-6.2407211 8.7278191 0
-3.0723209 -7.7755797 0
-1.4042631 -0.9162476 0
-1.4042631 0.9162476 0
-3.0723209 7.7755797 0
3.0723209 -7.7755797 0
1.4042631 -0.9162476 0
1.4042631 0.9162476 0
3.0723209 7.7755797 0
6.2407211 -8.7278191 0
8.3070695 -3.1852584 0
8.3070695 3.1852584 0
6.2407211 8.7278191 0
12.473841 -4.5609593 0
9.7541429 -0.23604234 0
9.7541429 0.23604234 0
12.473841 4.5609593 0
10.567425 -1.2268908 0
11.939857 0.032303198 0
11.939857 -0.032303198 0
10.567425 1.2268908 0
