# vtk DataFile Version 4.0
hesp visualization file
ASCII
DATASET UNSTRUCTURED_GRID
POINTS 1250 double
32.088604 1.5006313 4
30.258321 2.9000523 4
30.289634 3.3632046 4
30.28975 4.4898421 4
30.28975 5.612305 4
30.28975 6.7347723 4
30.28975 7.8572343 4
30.28975 8.9796964 4
30.28975 10.102158 4
30.28975 11.22462 4
30.28975 12.347083 4
30.28975 13.469545 4
30.28975 14.592007 4
30.28975 15.714469 4
30.28975 16.836931 4
30.28975 17.959393 4
30.28975 19.081855 4
30.28975 20.204317 4
30.28975 21.326779 4
30.28975 22.449241 4
30.28975 23.571703 4
30.28975 24.694171 4
30.289634 25.820812 4
30.258322 26.283961 4
32.088604 27.683382 4
31.39605 -1.2316901 4
31.262664 2.2806326 4
31.413316 3.3718298 4
31.037062 4.489821 4
31.037 5.6123141 4
31.037 6.7347723 4
31.037 7.8572343 4
31.037 8.9796964 4
31.037 10.102158 4
31.037 11.22462 4
31.037 12.347083 4
31.037 13.469545 4
31.037 14.592007 4
31.037 15.714469 4
31.037 16.836931 4
31.037 17.959393 4
31.037 19.081855 4
31.037 20.204317 4
31.037 21.326779 4
31.037 22.449241 4
31.037 23.571703 4
31.037062 24.694192 4
31.413316 25.812179 4
31.262664 26.903381 4
31.39605 30.415703 4
31.063401 1.2816642 4
31.718542 2.9986649 4
31.489588 4.1920084 4
31.616648 4.4892905 4
31.616635 5.6123067 4
31.616635 6.7347723 4
31.616635 7.8572343 4
31.616635 8.9796964 4
31.616635 10.102158 4
31.616635 11.22462 4
31.616635 12.347083 4
31.616635 13.469545 4
31.616635 14.592007 4
31.616635 15.714469 4
31.616635 16.836931 4
31.616635 17.959393 4
31.616635 19.081855 4
31.616635 20.204317 4
31.616635 21.326779 4
31.616635 22.449241 4
31.616635 23.571703 4
31.616648 24.694723 4
31.489596 24.992004 4
31.718535 26.185355 4
31.063401 27.902349 4
31.802028 -0.1923329 4
32.600459 1.2416111 4
32.364191 3.3872795 4
32.363593 4.4898616 4
32.363596 5.6123116 4
32.363596 6.7347723 4
32.363596 7.8572343 4
32.363596 8.9796964 4
32.363596 10.102158 4
32.363596 11.22462 4
32.363596 12.347083 4
32.363596 13.469545 4
32.363596 14.592007 4
32.363596 15.714469 4
32.363596 16.836931 4
32.363596 17.959393 4
32.363596 19.081855 4
32.363596 20.204317 4
32.363596 21.326779 4
32.363596 22.449241 4
32.363596 23.571703 4
32.363593 24.694151 4
32.364192 25.796717 4
32.600458 27.942402 4
31.802028 29.376346 4
33.510159 2.2351908 4
31.688404 2.5494837 4
32.941438 3.351571 4
32.943569 4.4898326 4
32.943573 5.6123091 4
32.943573 6.7347723 4
32.943573 7.8572343 4
32.943573 8.9796964 4
32.943573 10.102158 4
32.943573 11.22462 4
32.943573 12.347083 4
32.943573 13.469545 4
32.943573 14.592007 4
32.943573 15.714469 4
32.943573 16.836931 4
32.943573 17.959393 4
32.943573 19.081855 4
32.943573 20.204317 4
32.943573 21.326779 4
32.943573 22.449241 4
32.943573 23.571703 4
32.943569 24.694181 4
32.941436 25.832456 4
31.688404 26.634529 4
33.510159 26.948823 4
31.85986 0.89893631 4
33.955753 1.9763154 4
33.690167 3.3737914 4
33.690083 4.4898551 4
33.690083 5.6123105 4
33.690083 6.7347723 4
33.690083 7.8572343 4
33.690083 8.9796964 4
33.690083 10.102158 4
33.690083 11.22462 4
33.690083 12.347083 4
33.690083 13.469545 4
33.690083 14.592007 4
33.690083 15.714469 4
33.690083 16.836931 4
33.690083 17.959393 4
33.690083 19.081855 4
33.690083 20.204317 4
33.690083 21.326779 4
33.690083 22.449241 4
33.690083 23.571703 4
33.690083 24.694158 4
33.690168 25.810216 4
33.955752 27.207697 4
31.85986 28.285077 4
33.125087 1.8893653 4
34.963775 2.8373881 4
34.270388 3.3627727 4
34.270451 4.4898437 4
34.270451 5.6123101 4
34.270451 6.7347723 4
34.270451 7.8572343 4
34.270451 8.9796964 4
34.270451 10.102158 4
34.270451 11.22462 4
34.270451 12.347083 4
34.270451 13.469545 4
34.270451 14.592007 4
34.270451 15.714469 4
34.270451 16.836931 4
34.270451 17.959393 4
34.270451 19.081855 4
34.270451 20.204317 4
34.270451 21.326779 4
34.270451 22.449241 4
34.270451 23.571703 4
34.270451 24.69417 4
34.270388 25.821245 4
34.963775 26.346625 4
33.125087 27.294648 4
35.713685 -0.1157365 4
34.589262 2.3811512 4
35.016504 3.3680453 4
35.016536 4.4898477 4
35.016536 5.6123103 4
35.016536 6.7347723 4
35.016536 7.8572343 4
35.016536 8.9796964 4
35.016536 10.102158 4
35.016536 11.22462 4
35.016536 12.347083 4
35.016536 13.469545 4
35.016536 14.592007 4
35.016536 15.714469 4
35.016536 16.836931 4
35.016536 17.959393 4
35.016536 19.081855 4
35.016536 20.204317 4
35.016536 21.326779 4
35.016536 22.449241 4
35.016536 23.571703 4
35.016536 24.694165 4
35.016504 25.815967 4
34.589263 26.802863 4
35.713685 29.29975 4
34.737251 1.766196 4
35.236881 2.4222678 4
35.597091 3.3668982 4
35.597152 4.4898482 4
35.597153 5.6123102 4
35.597153 6.7347723 4
35.597153 7.8572343 4
35.597153 8.9796964 4
35.597153 10.102158 4
35.597153 11.22462 4
35.597153 12.347083 4
35.597153 13.469545 4
35.597153 14.592007 4
35.597153 15.714469 4
35.597153 16.836931 4
35.597153 17.959393 4
35.597153 19.081855 4
35.597153 20.204317 4
35.597153 21.326779 4
35.597153 22.449241 4
35.597153 23.571703 4
35.597152 24.694165 4
35.597091 25.817116 4
35.236881 26.761745 4
34.737251 27.417817 4
35.424489 1.1239028 4
36.437157 1.990832 4
36.343018 3.3674267 4
36.343018 4.4898481 4
36.343018 5.6123102 4
36.343018 6.7347723 4
36.343018 7.8572343 4
36.343018 8.9796964 4
36.343018 10.102158 4
36.343018 11.22462 4
36.343018 12.347083 4
36.343018 13.469545 4
36.343018 14.592007 4
36.343018 15.714469 4
36.343018 16.836931 4
36.343018 17.959393 4
36.343018 19.081855 4
36.343018 20.204317 4
36.343018 21.326779 4
36.343018 22.449241 4
36.343018 23.571703 4
36.343018 24.694165 4
36.343018 25.816586 4
36.437157 27.193181 4
35.424489 28.06011 4
36.547078 1.1239562 4
36.810963 2.3716598 4
36.923056 3.3673656 4
36.923057 4.4898482 4
36.923057 5.6123102 4
36.923057 6.7347723 4
36.923057 7.8572343 4
36.923057 8.9796964 4
36.923057 10.102158 4
36.923057 11.22462 4
36.923057 12.347083 4
36.923057 13.469545 4
36.923057 14.592007 4
36.923057 15.714469 4
36.923057 16.836931 4
36.923057 17.959393 4
36.923057 19.081855 4
36.923057 20.204317 4
36.923057 21.326779 4
36.923057 22.449241 4
36.923057 23.571703 4
36.923057 24.694165 4
36.923056 25.816648 4
36.810963 26.812353 4
36.547078 28.060057 4
37.669544 1.1239484 4
37.669542 2.2449325 4
37.66954 3.3673862 4
37.66954 4.4898482 4
37.66954 5.6123102 4
37.66954 6.7347723 4
37.66954 7.8572343 4
37.66954 8.9796964 4
37.66954 10.102158 4
37.66954 11.22462 4
37.66954 12.347083 4
37.66954 13.469545 4
37.66954 14.592007 4
37.66954 15.714469 4
37.66954 16.836931 4
37.66954 17.959393 4
37.66954 19.081855 4
37.66954 20.204317 4
37.66954 21.326779 4
37.66954 22.449241 4
37.66954 23.571703 4
37.66954 24.694165 4
37.66954 25.816627 4
37.669542 26.939081 4
37.669544 28.060065 4
38.792007 1.1239482 4
38.792007 2.2449322 4
38.792007 3.3673861 4
38.792007 4.4898482 4
38.792007 5.6123102 4
38.792007 6.7347723 4
38.792007 7.8572343 4
38.792007 8.9796964 4
38.792007 10.102158 4
38.792007 11.22462 4
38.792007 12.347083 4
38.792007 13.469545 4
38.792007 14.592007 4
38.792007 15.714469 4
38.792007 16.836931 4
38.792007 17.959393 4
38.792007 19.081855 4
38.792007 20.204317 4
38.792007 21.326779 4
38.792007 22.449241 4
38.792007 23.571703 4
38.792007 24.694165 4
38.792007 25.816627 4
38.792007 26.939081 4
38.792007 28.060065 4
39.914469 1.1239482 4
39.914469 2.2449322 4
39.914469 3.3673861 4
39.914469 4.4898482 4
39.914469 5.6123102 4
39.914469 6.7347723 4
39.914469 7.8572343 4
39.914469 8.9796964 4
39.914469 10.102158 4
39.914469 11.22462 4
39.914469 12.347083 4
39.914469 13.469545 4
39.914469 14.592007 4
39.914469 15.714469 4
39.914469 16.836931 4
39.914469 17.959393 4
39.914469 19.081855 4
39.914469 20.204317 4
39.914469 21.326779 4
39.914469 22.449241 4
39.914469 23.571703 4
39.914469 24.694165 4
39.914469 25.816627 4
39.914469 26.939081 4
39.914469 28.060065 4
41.036931 1.1239482 4
41.036931 2.2449322 4
41.036931 3.3673861 4
41.036931 4.4898482 4
41.036931 5.6123102 4
41.036931 6.7347723 4
41.036931 7.8572343 4
41.036931 8.9796964 4
41.036931 10.102158 4
41.036931 11.22462 4
41.036931 12.347083 4
41.036931 13.469545 4
41.036931 14.592007 4
41.036931 15.714469 4
41.036931 16.836931 4
41.036931 17.959393 4
41.036931 19.081855 4
41.036931 20.204317 4
41.036931 21.326779 4
41.036931 22.449241 4
41.036931 23.571703 4
41.036931 24.694165 4
41.036931 25.816627 4
41.036931 26.939081 4
41.036931 28.060065 4
42.159393 1.1239482 4
42.159393 2.2449322 4
42.159393 3.3673861 4
42.159393 4.4898482 4
42.159393 5.6123102 4
42.159393 6.7347723 4
42.159393 7.8572343 4
42.159393 8.9796964 4
42.159393 10.102158 4
42.159393 11.22462 4
42.159393 12.347083 4
42.159393 13.469545 4
42.159393 14.592007 4
42.159393 15.714469 4
42.159393 16.836931 4
42.159393 17.959393 4
42.159393 19.081855 4
42.159393 20.204317 4
42.159393 21.326779 4
42.159393 22.449241 4
42.159393 23.571703 4
42.159393 24.694165 4
42.159393 25.816627 4
42.159393 26.939081 4
42.159393 28.060065 4
43.281855 1.1239482 4
43.281855 2.2449322 4
43.281855 3.3673861 4
43.281855 4.4898482 4
43.281855 5.6123102 4
43.281855 6.7347723 4
43.281855 7.8572343 4
43.281855 8.9796964 4
43.281855 10.102158 4
43.281855 11.22462 4
43.281855 12.347083 4
43.281855 13.469545 4
43.281855 14.592007 4
43.281855 15.714469 4
43.281855 16.836931 4
43.281855 17.959393 4
43.281855 19.081855 4
43.281855 20.204317 4
43.281855 21.326779 4
43.281855 22.449241 4
43.281855 23.571703 4
43.281855 24.694165 4
43.281855 25.816627 4
43.281855 26.939081 4
43.281855 28.060065 4
44.404317 1.1239482 4
44.404317 2.2449322 4
44.404317 3.3673861 4
44.404317 4.4898482 4
44.404317 5.6123102 4
44.404317 6.7347723 4
44.404317 7.8572343 4
44.404317 8.9796964 4
44.404317 10.102158 4
44.404317 11.22462 4
44.404317 12.347083 4
44.404317 13.469545 4
44.404317 14.592007 4
44.404317 15.714469 4
44.404317 16.836931 4
44.404317 17.959393 4
44.404317 19.081855 4
44.404317 20.204317 4
44.404317 21.326779 4
44.404317 22.449241 4
44.404317 23.571703 4
44.404317 24.694165 4
44.404317 25.816627 4
44.404317 26.939081 4
44.404317 28.060065 4
45.526779 1.1239482 4
45.526779 2.2449322 4
45.526779 3.3673861 4
45.526779 4.4898482 4
45.526779 5.6123102 4
[...]
POINT_DATA 1250
SCALARS m double
LOOKUP_TABLE default
1
1
1
1
1
1
1
1
1
1
1
1
1
1
1
1
1
1
1
1
1
1
1
1
1
1
1
1
1
1
1
1
1
1
1
1
1
1
1
1
1
1
1
1
1
1
1
1
1
1
1
1
1
1
1
1
1
1
1
1
1
1
1
1
1
1
1
1
1
1
1
1
1
1
1
1
1
1
1
1
1
1
1
1
1
1
1
1
1
1
1
1
1
1
1
1
1
1
1
1
1
1
1
1
1
1
1
1
1
1
1
1
1
1
1
1
1
1
1
1
1
1
1
1
1
1
1
1
1
1
1
1
1
1
1
1
1
1
1
1
1
1
1
1
1
1
1
1
1
1
1
1
1
1
1
1
1
1
1
1
1
1
1
1
1
1
1
1
1
1
1
1
1
1
1
1
1
1
1
1
1
1
1
1
1
1
1
1
1
1
1
1
1
1
1
1
1
1
1
1
1
1
1
1
1
1
1
1
1
1
1
1
1
1
1
1
1
1
1
1
1
1
1
1
1
1
1
1
1
1
1
1
1
1
1
1
1
1
1
1
1
1
1
1
1
1
1
1
1
1
1
1
1
1
1
1
1
1
1
1
1
1
1
1
1
1
1
1
1
1
1
1
1
1
1
1
1
1
1
1
1
1
1
1
1
1
1
1
1
1
1
1
1
1
1
1
1
1
1
1
1
1
1
1
1
1
1
1
1
1
1
1
1
1
1
1
1
1
1
1
1
1
1
1
1
1
1
1
1
1
1
1
1
1
1
1
1
1
1
1
1
1
1
1
1
1
1
1
1
1
1
1
1
1
1
1
1
1
1
1
1
1
1
1
1
1
1
1
1
1
1
1
1
1
1
1
1
1
1
1
1
1
1
1
1
1
1
1
1
1
1
1
1
1
1
1
1
1
1
1
1
1
1
1
1
1
1
1
1
1
1
1
1
1
1
1
1
1
1
1
1
1
1
1
1
1
1
1
1
1
1
1
1
1
1
1
1
1
1
1
1
1
1
1
1
1
1
1
1
1
1
1
1
1
1
1
1
1
1
1
1
1
1
1
1
1
1
1
1
1
1
1
1
1
1
1
1
1
1
1
1
1
1
1
1
1
1
1
1
1
1
1
1
1
1
1
1
1
1
1
1
1
1
1
1
1
1
1
1
1
1
1
1
1
1
1
1
1
1
1
1
1
1
1
1
1
1
1
1
1
1
1
1
1
1
1
1
1
1
1
1
1
1
1
1
1
1
1
1
1
1
1
1
1
1
1
1
1
1
1
1
1
1
1
1
1
1
1
1
1
1
1
1
1
1
1
1
1
1
1
1
1
1
1
1
1
1
1
1
1
1
1
1
1
1
1
1
1
1
1
1
1
1
1
1
1
1
1
1
1
1
1
1
1
1
1
1
1
1
1
1
1
1
1
1
1
1
1
1
1
1
1
1
1
1
1
1
1
1
1
1
1
1
1
1
1
1
1
1
1
1
1
1
1
1
1
1
1
1
1
1
1
1
1
1
1
1
1
1
1
1
1
1
1
1
1
1
1
1
1
1
1
1
1
1
1
1
1
1
1
1
1
1
1
1
1
1
1
1
1
1
1
1
1
1
1
1
1
1
1
1
1
1
1
1
1
1
1
1
1
1
1
1
1
1
1
1
1
1
1
1
1
1
1
1
1
1
1
1
1
1
1
1
1
1
1
1
1
1
1
1
1
1
1
1
1
1
1
1
1
1
1
1
1
1
1
1
1
1
1
1
1
1
1
1
1
1
1
1
1
1
1
1
1
1
1
1
1
1
1
1
1
1
1
1
1
1
1
1
1
1
1
1
1
1
1
1
1
1
1
1
1
1
1
1
1
1
1
1
1
1
1
1
1
1
1
1
1
1
1
1
1
1
1
1
1
1
1
1
1
1
1
1
1
1
1
1
1
1
1
1
1
1
1
1
1
1
1
1
1
1
1
1
1
1
1
1
1
1
1
1
1
1
1
1
1
1
1
1
1
1
1
1
1
1
1
1
1
1
1
1
1
1
1
1
1
1
1
1
1
1
1
1
1
1
1
1
1
1
1
1
1
1
1
1
1
1
1
1
1
1
1
1
1
1
1
1
1
1
1
1
1
1
1
1
1
1
1
1
1
1
1
1
1
1
1
1
1
1
1
1
1
1
1
1
1
1
1
1
1
1
1
1
1
1
1
1
1
1
1
1
1
1
1
1
1
1
1
1
1
1
1
1
1
1
1
1
1
1
1
1
1
1
1
1
1
1
1
1
1
1
1
1
1
1
1
1
1
1
1
1
1
1
1
1
1
1
1
1
1
1
1
1
1
1
1
1
1
1
1
1
1
1
1
1
1
1
1
1
1
1
1
1
1
1
1
1
1
1
1
1
1
1
1
1
1
1
1
1
1
1
1
1
1
1
1
1
1
1
1
1
1
1
1
1
1
1
1
1
1
1
1
1
1
1
1
1
1
1
1
1
1
1
1
1
1
1
1
1
1
1
1
1
1
1
1
1
1
1
1
1
1
1
1
1
1
1
1
1
1
1
1
1
1
1
1
1
1
1
1
1
1
1
1
1
1
1
1
1
1
1
1
1
1
1
1
1
1
1
1
1
1
1
1
1
1
1
1
1
1
1
1
1
1
1
1
1
1
1
1
1
1
1
1
1
1
1
1
1
1
1
1
1
1
1
1
1
1
1
1
1
1
1
1
1
1
1
1
1
1
1
1
1
1
1
1
1
1
1
1
1
1
1
1
1
1
1
1
1
1
1
1
1
1
1
1
1
1
1
1
1
1
1
1
1
1
1
1
1
1
1
1
1
1
1
1
1
1
1
1
VECTORS v double
9.7478936 1.6499128 0
-6.6021511 7.3105131 0
9.9997001 -0.089931291 0
10.001568 -0.00010865764 0
10.001559 -0.00022687668 0
10.001559 1.3256273e-08 0
10.001559 -7.5890824e-12 0
10.001559 4.2173849e-09 0
10.001559 -1.3304147e-14 0
10.001559 -5.771477e-13 0
10.001559 4.1396813e-09 0
10.001559 4.7683144e-08 0
10.001559 4.1442542e-06 0
10.001559 -4.8033106e-08 0
10.001559 1.5626577e-12 0
10.001559 1.1154735e-12 0
10.001559 -4.472664e-15 0
10.001559 -1.1080072e-17 0
10.001559 -2.127614e-13 0
10.001559 -1.1591145e-10 0
10.001559 2.4059884e-06 0
10.001568 8.5482089e-05 0
9.9996999 0.090014209 0
-6.602147 -7.3105179 0
9.7478939 -1.6499125 0
-2.6310164 -13.726842 0
8.036604 -2.9190118 0
10.040946 0.046144672 0
-9.9920647 -0.0060587116 0
-10.000747 0.00014869935 0
-10.00075 -8.2861829e-09 0
-10.00075 5.4221428e-12 0
-10.00075 -1.0975454e-09 0
-10.00075 2.1849201e-14 0
-10.00075 -6.130781e-13 0
-10.00075 -1.0662852e-09 0
-10.00075 -2.4712258e-08 0
-10.00075 -2.7306109e-06 0
-10.00075 2.4938681e-08 0
-10.00075 8.5764437e-13 0
-10.00075 1.2546653e-12 0
-10.00075 -4.3517676e-15 0
-10.00075 -4.4010037e-18 0
-10.00075 -6.5936952e-13 0
-10.00075 -7.1036376e-10 0
-10.000747 1.0138363e-05 0
-9.9920651 0.0060543151 0
10.040945 -0.046201004 0
8.0366004 2.9190187 0
-2.6310165 13.726842 0
-0.47743425 -5.2190401 0
0.63719328 -3.3017498 0
-5.1071433 16.468271 0
10.00229 -0.05881324 0
10.002704 -0.00016871259 0
10.002703 8.11075e-09 0
10.002703 -6.017386e-12 0
10.002703 8.940633e-10 0
10.002703 1.0271323e-14 0
10.002703 -3.6746311e-13 0
10.002703 8.6901648e-10 0
10.002703 2.1833571e-08 0
10.002703 2.512039e-06 0
10.002703 -2.1997365e-08 0
10.002703 8.1876547e-13 0
10.002703 7.4260767e-13 0
10.002703 -4.2234105e-15 0
10.002703 -2.5973155e-18 0
10.002703 -7.3564046e-13 0
10.002703 -8.0542899e-10 0
10.002704 1.9889594e-05 0
10.002293 0.058812548 0
-5.1070112 -16.468291 0
0.6370627 3.3018614 0
-0.47743677 5.2190383 0
-0.34416368 -3.830367 0
-6.9560741 -10.519953 0
-9.9722857 0.79683809 0
-10.000858 0.0004592404 0
-10.000563 5.1047215e-05 0
-10.00056 -2.0834156e-09 0
-10.00056 3.2182145e-12 0
-10.00056 -7.6456055e-13 0
-10.00056 4.1531172e-15 0
-10.00056 -3.9104983e-13 0
-10.00056 -7.4232877e-13 0
-10.00056 -3.3608229e-09 0
-10.00056 -7.3288246e-07 0
-10.00056 3.4088229e-09 0
-10.00056 6.9731063e-13 0
-10.00056 7.7711748e-13 0
-10.00056 -4.0924766e-15 0
-10.00056 -1.0389255e-17 0
-10.00056 -4.9357313e-13 0
-10.00056 -4.3549458e-10 0
-10.000563 6.1613378e-06 0
-10.000858 -0.00047018313 0
-9.9722361 -0.79750463 0
-6.9560784 10.519953 0
-0.34416359 3.830367 0
5.3932436 5.8015094 0
-9.6623229 2.2480309 0
9.9477886 -0.73521938 0
10.003674 -0.00068527265 0
10.003831 -5.3229787e-05 0
10.003834 1.5679415e-09 0
10.003834 -3.2615392e-12 0
10.003834 -4.6028137e-13 0
10.003834 4.4165212e-15 0
10.003834 -2.3298531e-13 0
10.003834 -4.1131493e-13 0
10.003834 2.7486851e-09 0
10.003834 6.3021771e-07 0
10.003834 -2.7690832e-09 0
10.003834 4.7295503e-13 0
10.003834 4.6237632e-13 0
10.003834 -3.9634953e-15 0
10.003834 -1.2977534e-17 0
10.003834 -2.6593988e-13 0
10.003834 -5.0264223e-12 0
10.003831 2.4488924e-06 0
10.003674 0.00069586018 0
9.9477383 0.735846 0
-9.6623226 -2.2480368 0
5.3932461 -5.8015174 0
-9.9750589 -1.0279403 0
-8.1978324 -5.157466 0
-9.9974088 0.24954336 0
-10.001048 0.0002572015 0
-10.00105 9.9410601e-06 0
-10.00105 -2.1522484e-10 0
-10.00105 5.7834587e-13 0
-10.00105 -5.3834782e-13 0
-10.00105 4.3049131e-15 0
-10.00105 -2.7199146e-13 0
-10.00105 -5.4678721e-13 0
-10.00105 1.3614021e-13 0
-10.00105 -6.599101e-08 0
-10.00105 2.0911906e-12 0
-10.00105 5.2894902e-13 0
-10.00105 5.4035384e-13 0
-10.00105 -3.834292e-15 0
-10.00105 -1.6917296e-17 0
-10.00105 -5.9970077e-14 0
-10.00105 -2.5859973e-11 0
-10.00105 -6.742009e-08 0
-10.001048 -0.00026239053 0
-9.9974034 -0.24978848 0
-8.1978551 5.1574334 0
-9.9750589 1.0279403 0
-9.032572 4.1240408 0
8.0735817 5.2065178 0
10.002447 -0.2229314 0
10.004662 -0.00023249564 0
10.004662 -8.4117822e-06 0
10.004662 4.2199714e-11 0
10.004662 -5.281624e-13 0
10.004662 -4.3848588e-13 0
10.004662 4.1596775e-15 0
10.004662 -2.2198264e-13 0
10.004662 -4.3350504e-13 0
10.004662 -1.7613044e-13 0
10.004662 5.3802646e-08 0
10.004662 1.1826901e-13 0
10.004662 4.4049752e-13 0
10.004662 4.4050287e-13 0
10.004662 -3.7044087e-15 0
10.004662 -1.6216924e-17 0
10.004662 1.2245775e-15 0
10.004662 2.3029685e-11 0
10.004662 4.3516228e-08 0
10.004662 0.00023715478 0
10.002442 0.2231485 0
8.0735826 -5.2065166 0
-9.0325705 -4.1240251 0
4.8370528 -9.9978592 0
7.1276195 6.3302483 0
-10.005113 0.016291781 0
-10.002022 -2.1989556e-05 0
-10.002019 6.5716434e-07 0
-10.002019 7.8801531e-13 0
-10.002019 9.1189174e-14 0
-10.002019 -1.3159779e-13 0
-10.002019 4.014464e-15 0
-10.002019 -6.8416684e-14 0
-10.002019 -1.3087232e-13 0
-10.002019 -2.1829956e-13 0
-10.002019 3.5772725e-13 0
-10.002019 1.679259e-13 0
-10.002019 1.2912335e-13 0
-10.002019 1.3349354e-13 0
-10.002019 -3.5749396e-15 0
-10.002019 -1.5436621e-17 0
-10.002019 -3.2476555e-16 0
-10.002019 -6.3210484e-12 0
-10.002019 -1.4026659e-08 0
-10.002022 2.0952804e-05 0
-10.005113 -0.01633269 0
7.1276407 -6.3302216 0
4.8370528 9.9978591 0
-5.8387451 6.1895065 0
-9.771587 2.4393958 0
10.002595 -0.02531273 0
10.004996 -7.5706448e-07 0
10.004999 -5.3396418e-07 0
10.004999 -3.2962446e-12 0
10.004999 -7.7486505e-14 0
10.004999 -1.7268548e-13 0
10.004999 3.8675469e-15 0
10.004999 -8.8854684e-14 0
10.004999 -1.7110881e-13 0
10.004999 -2.5547559e-13 0
10.004999 -3.3582444e-13 0
10.004999 2.5429973e-13 0
10.004999 1.7111492e-13 0
10.004999 1.7449214e-13 0
10.004999 -3.4449786e-15 0
10.004999 -1.3894567e-17 0
10.004999 5.4779285e-16 0
10.004999 -1.4281246e-12 0
10.004999 9.4506858e-09 0
10.004996 1.6399912e-06 0
10.002595 0.025347242 0
-9.7715872 -2.4393953 0
-5.8387451 -6.1895065 0
-10.002447 0.0043454448 0
-5.4505258 -9.368055 0
-10.003142 0.0015239178 0
-10.003164 -2.666126e-06 0
-10.003164 1.1136231e-09 0
-10.003164 5.3936481e-13 0
-10.003164 -2.0556855e-14 0
-10.003164 -1.1831018e-13 0
-10.003164 3.7211547e-15 0
-10.003164 -6.156817e-14 0
-10.003164 -1.1678257e-13 0
-10.003164 -1.7206042e-13 0
-10.003164 -2.3632235e-13 0
-10.003164 1.7488633e-13 0
-10.003164 1.1679326e-13 0
-10.003164 1.2004199e-13 0
-10.003164 -3.3153962e-15 0
-10.003164 -1.2800191e-17 0
-10.003164 -2.8309905e-17 0
-10.003164 -3.4828307e-13 0
-10.003164 -8.1374463e-10 0
-10.003164 2.5911767e-06 0
-10.003142 -0.0015264373 0
-5.4505278 9.3680536 0
-10.002447 -0.0043454449 0
-10.00017 0.0056812537 0
5.1953707 7.392622 0
10.003276 -0.0011489372 0
10.003299 1.7802074e-06 0
10.0033 -6.4622958e-10 0
10.0033 9.4380576e-14 0
10.0033 -6.7572442e-15 0
10.0033 -2.8407489e-14 0
10.0033 3.5759339e-15 0
10.0033 -1.6522732e-14 0
10.0033 -2.6939153e-14 0
10.0033 -3.7348514e-14 0
10.0033 -5.6834633e-14 0
10.0033 4.0200815e-14 0
10.0033 2.6949176e-14 0
10.0033 3.007084e-14 0
10.0033 -3.186743e-15 0
10.0033 -1.1637407e-17 0
10.0033 1.3849057e-16 0
10.0033 -8.1571318e-14 0
10.0033 3.9725141e-10 0
10.003299 -1.7190645e-06 0
10.003276 0.0011509916 0
5.1953728 -7.392621 0
-10.00017 -0.0056812536 0
-10.000017 0.0051461435 0
-10.000329 6.3109076e-05 0
-10.000724 2.215035e-06 0
-10.000725 -2.6606656e-08 0
-10.000725 1.8975122e-11 0
-10.000725 -1.4293624e-14 0
-10.000725 5.6243831e-18 0
-10.000725 -1.4649547e-15 0
-10.000725 3.4465505e-15 0
-10.000725 -2.9661453e-15 0
-10.000725 -4.873099e-17 0
-10.000725 2.8753436e-15 0
-10.000725 -2.9470943e-15 0
-10.000725 -1.2592941e-16 0
-10.000725 5.8534005e-17 0
-10.000725 3.0665183e-15 0
-10.000725 -3.0716793e-15 0
-10.000725 -1.0743965e-17 0
-10.000725 1.1286615e-16 0
-10.000725 1.690236e-14 0
-10.000725 -1.9050405e-11 0
-10.000725 2.660623e-08 0
-10.000724 -2.2150089e-06 0
-10.000329 -6.3109088e-05 0
-10.000017 -0.0051461435 0
-10.000001 0.0051322733 0
-10.000002 2.1195176e-05 0
-10.000003 -6.1615261e-08 0
-10.000003 -1.9676873e-10 0
-10.000003 7.4586022e-13 0
-10.000003 8.2994664e-16 0
-10.000003 -4.6770915e-18 0
-10.000003 -1.4635746e-15 0
-10.000003 3.4400945e-15 0
-10.000003 -2.9605415e-15 0
-10.000003 -4.9595281e-17 0
-10.000003 2.8682651e-15 0
-10.000003 -2.9438692e-15 0
-10.000003 -1.2384877e-16 0
-10.000003 5.8845483e-17 0
-10.000003 3.0616326e-15 0
-10.000003 -3.0658777e-15 0
-10.000003 -1.0582373e-17 0
-10.000003 1.1857252e-16 0
-10.000003 1.9326072e-15 0
-10.000003 -7.4801498e-13 0
-10.000003 1.9675992e-10 0
-10.000003 6.1615305e-08 0
-10.000002 -2.1195176e-05 0
-10.000001 -0.0051322733 0
-10 0.0051319755 0
-10 2.0762365e-05 0
-10 -1.4363982e-07 0
-10 -2.0108012e-10 0
-10 7.3014885e-13 0
-10 8.292757e-16 0
-10 -4.7029776e-18 0
-10 -1.4629837e-15 0
-10 3.4400546e-15 0
-10 -2.9611885e-15 0
-10 -4.9655382e-17 0
-10 2.8683538e-15 0
-10 -2.9440333e-15 0
-10 -1.2369638e-16 0
-10 5.889738e-17 0
-10 3.0616801e-15 0
-10 -3.0657985e-15 0
-10 -1.0581916e-17 0
-10 1.1852267e-16 0
-10 1.9322802e-15 0
-10 -7.3205556e-13 0
-10 2.0107924e-10 0
-10 1.4363982e-07 0
-10 -2.0762365e-05 0
-10 -0.0051319755 0
-10 0.0051319755 0
-10 2.0762365e-05 0
-10 -1.4363975e-07 0
-10 -2.0106395e-10 0
-10 7.3014887e-13 0
-10 8.2935739e-16 0
-10 -4.6664326e-18 0
-10 -1.4629137e-15 0
-10 3.4397393e-15 0
-10 -2.9612712e-15 0
-10 -4.9851523e-17 0
-10 2.868301e-15 0
-10 -2.9440283e-15 0
-10 -1.2394679e-16 0
-10 5.9165848e-17 0
-10 3.0615999e-15 0
-10 -3.0657626e-15 0
-10 -1.0596148e-17 0
-10 1.1852734e-16 0
-10 1.9323402e-15 0
-10 -7.3205559e-13 0
-10 2.0106306e-10 0
-10 1.4363974e-07 0
-10 -2.0762365e-05 0
-10 -0.0051319755 0
-10 0.0051319755 0
-10 2.0762365e-05 0
-10 -1.4363975e-07 0
-10 -2.0106395e-10 0
-10 7.3014866e-13 0
-10 8.293912e-16 0
-10 -4.5853611e-18 0
-10 -1.4632535e-15 0
-10 3.4398714e-15 0
-10 -2.9609201e-15 0
-10 -4.964435e-17 0
-10 2.8681167e-15 0
-10 -2.9434143e-15 0
-10 -1.2393824e-16 0
-10 5.9348615e-17 0
-10 3.0615712e-15 0
-10 -3.065641e-15 0
-10 -1.0584477e-17 0
-10 1.1848115e-16 0
-10 1.9323461e-15 0
-10 -7.320556e-13 0
-10 2.0106306e-10 0
-10 1.4363975e-07 0
-10 -2.0762365e-05 0
-10 -0.0051319755 0
-10 0.0051319755 0
-10 2.0762365e-05 0
-10 -1.4363975e-07 0
-10 -2.0106395e-10 0
-10 7.3014852e-13 0
-10 8.2926745e-16 0
-10 -4.6800413e-18 0
-10 -1.4636113e-15 0
-10 3.4400451e-15 0
-10 -2.9604214e-15 0
-10 -4.9605412e-17 0
-10 2.8681813e-15 0
-10 -2.9437792e-15 0
-10 -1.2385422e-16 0
-10 5.8800102e-17 0
-10 3.0615925e-15 0
-10 -3.0657405e-15 0
-10 -1.0581795e-17 0
-10 1.1845736e-16 0
-10 1.9324175e-15 0
-10 -7.3205528e-13 0
-10 2.0106306e-10 0
-10 1.4363975e-07 0
-10 -2.0762365e-05 0
-10 -0.0051319755 0
-10 0.0051319755 0
-10 2.0762365e-05 0
-10 -1.4363975e-07 0
-10 -2.0106395e-10 0
-10 7.3014868e-13 0
-10 8.2924425e-16 0
-10 -4.6887149e-18 0
-10 -1.4628567e-15 0
-10 3.4400451e-15 0
-10 -2.961176e-15 0
-10 -4.9605412e-17 0
-10 2.8684328e-15 0
-10 -2.9437792e-15 0
-10 -1.2385422e-16 0
-10 5.8800102e-17 0
-10 3.0615925e-15 0
-10 -3.0657405e-15 0
-10 -1.0581795e-17 0
-10 1.1845736e-16 0
-10 1.9324169e-15 0
-10 -7.3205532e-13 0
-10 2.0106306e-10 0
-10 1.4363975e-07 0
-10 -2.0762365e-05 0
-10 -0.0051319755 0
-10 0.0051319755 0
-10 2.0762365e-05 0
-10 -1.4363975e-07 0
-10 -2.0106395e-10 0
-10 7.3014869e-13 0
-10 8.2924837e-16 0
-10 -4.6887149e-18 0
-10 -1.4628567e-15 0
-10 3.4400451e-15 0
-10 -2.961176e-15 0
-10 -4.9605412e-17 0
-10 2.8684328e-15 0
-10 -2.9440307e-15 0
-10 -1.2385422e-16 0
-10 5.8800102e-17 0
-10 3.0615925e-15 0
-10 -3.0657405e-15 0
-10 -1.0581795e-17 0
-10 1.1845736e-16 0
-10 1.9324175e-15 0
-10 -7.3205532e-13 0
-10 2.0106306e-10 0
-10 1.4363975e-07 0
-10 -2.0762365e-05 0
-10 -0.0051319755 0
-10 0.0051319755 0
-10 2.0762365e-05 0
-10 -1.4363975e-07 0
-10 -2.0106395e-10 0
-10 7.3014837e-13 0
-10 8.2947779e-16 0
-10 -4.5999315e-18 0
-10 -1.4632168e-15 0
-10 3.4399936e-15 0
-10 -2.9611478e-15 0
-10 -4.9809563e-17 0
-10 2.86826e-15 0
-10 -2.943873e-15 0
-10 -1.2401401e-16 0
-10 5.909322e-17 0
-10 3.0614007e-15 0
-10 -3.0655924e-15 0
-10 -1.0598831e-17 0
-10 1.1849038e-16 0
-10 1.9320832e-15 0
-10 -7.3205535e-13 0
-10 2.0106306e-10 0
-10 1.4363975e-07 0
-10 -2.0762365e-05 0
-10 -0.0051319755 0
-10 0.0051319755 0
-10 2.0762365e-05 0
-10 -1.4363975e-07 0
-10 -2.0106395e-10 0
-10 7.3014858e-13 0
-10 8.2963924e-16 0
-10 -4.6593729e-18 0
-10 -1.4638175e-15 0
-10 3.4403791e-15 0
-10 -2.9612562e-15 0
-10 -4.9666121e-17 0
-10 2.8685449e-15 0
-10 -2.9443849e-15 0
-10 -1.2331627e-16 0
-10 5.9191582e-17 0
-10 3.0615459e-15 0
-10 -3.06583e-15 0
-10 -1.0587423e-17 0
-10 1.1864358e-16 0
-10 1.9312879e-15 0
-10 -7.3205545e-13 0
-10 2.0106306e-10 0
-10 1.4363975e-07 0
-10 -2.0762365e-05 0
-10 -0.0051319755 0
-10 0.0051319755 0
-10 2.0762365e-05 0
-10 -1.4363974e-07 0
-10 -2.0106387e-10 0
-10 7.3014392e-13 0
-10 8.2940488e-16 0
-10 -4.606807e-18 0
-10 -1.4630684e-15 0
-10 3.4400322e-15 0
-10 -2.961009e-15 0
-10 -4.9524649e-17 0
-10 2.8686315e-15 0
-10 -2.9438002e-15 0
-10 -1.241507e-16 0
-10 5.9023463e-17 0
-10 3.0615265e-15 0
-10 -3.0661404e-15 0
-10 -1.0588997e-17 0
-10 1.190115e-16 0
-10 1.9318397e-15 0
-10 -7.3205542e-13 0
-10 2.0106299e-10 0
-10 1.4363974e-07 0
-10 -2.0762365e-05 0
-10 -0.0051319755 0
-9.9999999 0.0051319781 0
-9.9999999 2.0762318e-05 0
-9.9999999 -1.4364222e-07 0
-9.9999999 -2.0106123e-10 0
-9.9999999 7.3015561e-13 0
-9.9999999 8.2926231e-16 0
-9.9999999 -4.4794559e-18 0
-9.9999999 -1.4622942e-15 0
-9.9999999 3.4399692e-15 0
-9.9999999 -2.9607035e-15 0
-9.9999999 -4.8960069e-17 0
-9.9999999 2.869403e-15 0
-9.9999999 -2.9421013e-15 0
-9.9999999 -1.2546934e-16 0
-9.9999999 5.8479003e-17 0
-9.9999999 3.0607941e-15 0
-9.9999999 -3.0660878e-15 0
-9.9999999 -1.0588413e-17 0
-9.9999999 1.189546e-16 0
-9.9999999 1.932426e-15 0
-9.9999999 -7.3206937e-13 0
-9.9999999 2.0106029e-10 0
-9.9999999 1.4364222e-07 0
-9.9999999 -2.0762318e-05 0
-9.9999999 -0.0051319781 0
-10.000022 0.0051323658 0
-10.000021 2.080911e-05 0
-10.000021 -1.4372508e-07 0
-10.000021 -2.0135944e-10 0
-10.000021 7.3063949e-13 0
-10.000021 8.3072604e-16 0
-10.000021 -4.8157886e-18 0
-10.000021 -1.4646582e-15 0
-10.000021 3.4401842e-15 0
-10.000021 -2.9615882e-15 0
-10.000021 -5.0656479e-17 0
-10.000021 2.8671379e-15 0
-10.000021 -2.9467119e-15 0
-10.000021 -1.2232645e-16 0
-10.000021 6.0280659e-17 0
-10.000021 3.062816e-15 0
-10.000021 -3.0666764e-15 0
-10.000021 -1.0589072e-17 0
-10.000021 1.1937529e-16 0
-10.000021 1.9299085e-15 0
-10.000021 -7.3260434e-13 0
-10.000021 2.0135844e-10 0
-10.000021 1.4372508e-07 0
-10.000021 -2.080911e-05 0
-10.000022 -0.0051323658 0
-10.004849 0.0048488944 0
-10.005132 2.1906246e-05 0
-10.005132 -1.3928759e-07 0
-10.005132 -2.1204848e-10 0
-10.005132 7.1224883e-13 0
-10.005132 8.5811507e-16 0
-10.005132 -5.1895031e-18 0
-10.005132 -1.4297664e-15 0
-10.005132 3.3527063e-15 0
-10.005132 -2.8871971e-15 0
-10.005132 -5.1462066e-17 0
-10.005132 2.7916673e-15 0
-10.005132 -2.8765586e-15 0
-10.005132 -1.1646767e-16 0
-10.005132 6.1320167e-17 0
-10.005132 2.9870199e-15 0
-10.005132 -2.9893631e-15 0
-10.005132 -1.0589016e-17 0
-10.005132 1.1719127e-16 0
-10.005132 1.8393788e-15 0
-10.005132 -7.1402161e-13 0
-10.005132 2.120467e-10 0
-10.005132 1.3928759e-07 0
-10.005132 -2.1906246e-05 0
-10.004849 -0.0048488944 0
-9.7478937 1.6499127 0
6.6021519 7.3105118 0
-9.9997001 -0.089969142 0
-10.001568 -8.2429513e-05 0
-10.001559 0.00022320495 0
-10.001559 -1.3222978e-08 0
-10.001559 7.2308073e-12 0
-10.001559 -4.5109327e-09 0
-10.001559 6.570752e-14 0
-10.001559 -6.9555712e-13 0
-10.001559 -4.4311666e-09 0
-10.001559 -4.8300065e-08 0
-10.001559 -4.1561373e-06 0
-10.001559 4.8654759e-08 0
-10.001559 9.3163762e-13 0
-10.001559 1.5065586e-12 0
-10.001559 -4.4719831e-15 0
-10.001559 -1.146779e-17 0
-10.001559 -2.128611e-13 0
-10.001559 -1.1505581e-10 0
-10.001559 2.3976568e-06 0
-10.001568 0.00010893888 0
-9.9996999 0.089979087 0
6.602146 -7.3105201 0
-9.7478939 -1.6499125 0
2.6310164 -13.726842 0
-8.0366048 -2.9190109 0
-10.040946 0.04614791 0
9.9920647 -0.0060863556 0
10.000747 -0.00018557826 0
10.00075 1.0706196e-08 0
10.00075 -7.0229121e-12 0
10.00075 3.9563701e-09 0
10.00075 -5.0247878e-14 0
10.00075 -6.0021538e-13 0
10.00075 3.8982826e-09 0
10.00075 3.1012782e-08 0
10.00075 2.8757503e-06 0
10.00075 -3.1246383e-08 0
10.00075 1.3228775e-12 0
10.00075 1.0885637e-12 0
10.00075 -4.3527264e-15 0
10.00075 -4.1775443e-18 0
10.00075 -6.5924433e-13 0
10.00075 -7.0975432e-10 0
10.000747 1.0143789e-05 0
9.9920651 0.0060330488 0
-10.040945 -0.046197807 0
-8.0365991 2.9190201 0
2.6310165 13.726842 0
0.47743435 -5.21904 0
-0.63719166 -3.3017509 0
5.1071413 16.468272 0
-10.00229 -0.058786375 0
-10.002704 0.00014592014 0
-10.002703 -7.5292834e-09 0
-10.002703 9.6069623e-12 0
-10.002703 -3.6048361e-09 0
-10.002703 1.3691273e-14 0
-10.002703 -4.9656681e-13 0
-10.002703 -3.555146e-09 0
-10.002703 -2.7868792e-08 0
-10.002703 -2.6558225e-06 0
-10.002703 2.8034855e-08 0
-10.002703 9.2512407e-13 0
-10.002703 1.0064078e-12 0
-10.002703 -4.2225355e-15 0
-10.002703 -1.8718963e-18 0
-10.002703 -7.3568276e-13 0
-10.002703 -8.0585722e-10 0
-10.002704 1.9884616e-05 0
-10.002293 0.058832945 0
5.1070165 -16.468289 0
-0.63706778 3.3018579 0
0.47743659 5.2190384 0
0.34416369 -3.830367 0
6.9560741 -10.519953 0
9.9722857 0.7968381 0
10.000858 0.00043699199 0
10.000563 -7.5570884e-05 0
10.00056 3.490428e-09 0
10.00056 -3.4202839e-12 0
10.00056 8.1353786e-10 0
10.00056 -6.5343778e-15 0
10.00056 -3.4974555e-13 0
10.00056 8.0756111e-10 0
10.00056 5.6106624e-09 0
10.00056 8.0583046e-07 0
10.00056 -5.6504532e-09 0
10.00056 7.0981598e-13 0