# vtk DataFile Version 4.0
hesp visualization file
ASCII
DATASET UNSTRUCTURED_GRID
POINTS 32 double
-2.3413129 0.24952286 4
-3.6855739 2.2098324 4
-3.6855739 3.4024779 4
-2.3413129 5.3627874 4
-2.4182808 -2.6825329 4
-1.0925388 1.7015951 4
-1.0925388 3.9107151 4
-2.4182808 8.2948431 4
3.9663477 -6.1363074 4
1.0775707 -1.0013817 4
1.0775707 6.6136919 4
3.9663477 11.748618 4
7.7002192 -6.2707145 4
8.912271 1.109443 4
8.912271 4.5028673 4
7.7002192 11.883025 4
13.912091 -6.2707145 4
12.700039 1.109443 4
12.700039 4.5028673 4
13.912091 11.883025 4
17.645963 -6.1363074 4
20.53474 -1.0013817 4
20.53474 6.6136919 4
17.645963 11.748618 4
24.030591 -2.6825329 4
22.704849 1.7015951 4
22.704849 3.9107151 4
24.030591 8.2948431 4
23.953623 0.24952286 4
25.297884 2.2098324 4
25.297884 3.4024779 4
23.953623 5.3627874 4
CELLS 0 0
CELL_TYPES 0
POINT_DATA 32
SCALARS m double
LOOKUP_TABLE default
1
1
1
1
1
1
1
1
1
1
1
1
1
1
1
1
1
1
1
1
1
1
1
1
1
1
1
1
1
1
1
1
VECTORS v double
-10.530597 -1.1608951 0
-11.916932 0.46067872 0
-11.916932 -0.46067872 0
-10.530597 1.1608951 0
-12.473427 -4.5540492 0
-9.8115216 -0.26745985 0
-9.8115216 0.26745985 0
-12.473427 4.5540492 0
-6.2398993 -8.7278347 0
-8.3098121 -3.1840897 0
-8.3098121 3.1840897 0
-6.2398993 8.7278347 0
-3.0731436 -7.7755054 0
-1.4034927 -0.91489641 0
-1.4034927 0.91489641 0
-3.0731436 7.7755054 0
3.0731436 -7.7755054 0
1.4034927 -0.91489641 0
1.4034927 0.91489641 0
3.0731436 7.7755054 0
6.2398993 -8.7278347 0
8.3098121 -3.1840897 0
8.3098121 3.1840897 0
6.2398993 8.7278347 0
12.473427 -4.5540492 0
9.8115216 -0.26745985 0
9.8115216 0.26745985 0
12.473427 4.5540492 0
10.530597 -1.1608951 0
11.916932 0.46067872 0
11.916932 -0.46067872 0
10.530597 1.1608951 0
