# vtk DataFile Version 4.0
hesp visualization file
ASCII
DATASET UNSTRUCTURED_GRID
POINTS 1250 double
34.79886 5.4566356 4
31.227956 -0.032167023 4
34.394745 5.5950958 4
30.191919 2.3949059 4
29.426517 4.7834293 4
30.518733 7.7818394 4
30.875683 7.0689837 4
32.595267 9.0512699 4
30.078529 10.31285 4
30.777453 11.160062 4
28.983471 12.712002 4
32.375572 14.234199 4
32.089149 16.352728 4
32.119654 14.953346 4
30.421434 17.003614 4
30.783297 17.947681 4
29.980842 18.164266 4
30.250478 18.924323 4
31.753202 20.029281 4
30.705137 19.521799 4
32.448285 22.257721 4
33.728443 26.529682 4
36.960536 23.296453 4
31.541535 28.64672 4
32.478788 27.476612 4
30.443091 -9.4677136 4
32.731129 2.0162578 4
31.672926 -1.84174 4
33.933067 5.6841314 4
35.661925 5.4536006 4
29.378334 7.5357674 4
31.218391 6.4753343 4
30.787922 10.785717 4
32.109078 10.191818 4
31.84657 11.310514 4
32.628028 11.582727 4
29.266036 12.67584 4
30.527911 14.964152 4
29.333475 16.639624 4
30.736601 16.36284 4
31.898773 17.975506 4
32.310123 18.072546 4
30.65958 17.519779 4
30.106784 21.269877 4
29.940764 21.933932 4
31.568144 24.440537 4
31.484107 24.180483 4
31.679809 31.022351 4
33.278547 27.47229 4
30.443091 38.651727 4
31.848366 -1.3830809 4
33.902831 4.4493509 4
29.189333 6.5009468 4
32.651972 5.6555472 4
33.103594 4.5726177 4
28.713785 9.1493096 4
32.761487 12.533903 4
32.764516 10.092588 4
32.514367 9.585326 4
31.864018 10.877248 4
29.868022 12.788499 4
32.94689 14.117826 4
33.859962 15.9175 4
32.67716 15.869039 4
31.93991 17.282876 4
32.304249 17.359121 4
31.132641 19.126717 4
31.23649 21.893276 4
33.288045 18.417394 4
31.704497 18.361428 4
33.141399 23.730995 4
35.254838 24.809431 4
31.525317 24.97379 4
34.074733 25.482024 4
31.850143 30.562157 4
31.53026 -2.4250792 4
31.744072 -5.1095108 4
31.543466 3.9234539 4
34.246688 3.7421013 4
28.499523 5.4186069 4
31.385028 9.820752 4
33.507942 8.2945782 4
30.375577 10.253194 4
32.77181 13.152362 4
32.715096 11.279598 4
32.265893 11.237051 4
30.068352 12.992279 4
29.172329 13.935297 4
30.073061 16.180732 4
30.835911 17.328027 4
32.544654 17.804905 4
34.365499 18.28778 4
31.428674 19.687762 4
32.560013 21.014884 4
30.098774 23.987471 4
32.202309 24.40161 4
35.075139 26.043893 4
31.433247 25.227722 4
31.744076 34.293525 4
31.530262 31.609098 4
31.348207 6.7939421 4
32.090629 3.9756863 4
32.155682 0.3512186 4
36.871219 3.9640462 4
31.756593 7.7325286 4
31.243564 4.5220223 4
31.161166 7.7175158 4
33.281712 10.506106 4
32.245128 10.444536 4
32.800502 13.535633 4
31.750029 14.27573 4
33.791103 15.094851 4
33.356399 15.813051 4
31.816093 16.927 4
32.295718 16.969587 4
32.905592 17.078496 4
32.197022 20.007411 4
31.61751 20.711004 4
31.133194 23.120669 4
31.260391 20.461487 4
30.675043 19.975988 4
33.453088 21.650194 4
31.965771 28.662789 4
32.490072 24.488538 4
35.42312 23.738059 4
30.626512 -2.5607113 4
32.172578 -4.0303359 4
35.648959 3.6465931 4
30.290054 9.221349 4
32.555572 7.5764808 4
31.36349 6.2151538 4
34.368838 7.6563982 4
34.148801 9.5434171 4
32.367298 10.088069 4
35.224732 9.5970468 4
32.864614 11.84486 4
33.89202 11.632474 4
34.201304 11.851149 4
34.41628 13.933855 4
34.909567 16.849277 4
34.003898 16.660618 4
33.421588 18.993295 4
32.424086 19.231642 4
31.794133 21.332109 4
30.295437 21.39524 4
33.237261 22.163539 4
30.727518 23.17005 4
33.953703 22.200171 4
32.172874 33.214431 4
30.626507 31.744728 4
30.812911 1.5115927 4
36.816252 3.1777457 4
29.946367 1.0061547 4
34.447015 6.204934 4
30.242678 4.5067438 4
34.37277 7.3184377 4
36.405313 7.4977293 4
32.820603 9.7465089 4
33.525883 10.347187 4
33.369218 11.275772 4
34.020095 12.582694 4
33.331286 14.019621 4
33.904158 14.661889 4
33.916221 13.548333 4
33.44739 17.158869 4
33.404469 17.906286 4
33.18189 20.307401 4
35.286979 20.065776 4
34.072526 21.279722 4
32.414851 21.704996 4
30.696688 22.370069 4
34.314897 23.634591 4
29.807929 28.049874 4
36.677197 25.509886 4
30.93178 27.686784 4
38.615917 -6.1143914 4
33.16993 2.3810128 4
36.128497 1.5945834 4
33.640656 6.0386793 4
35.843971 5.782363 4
33.769707 6.5055342 4
33.589564 9.1517677 4
36.161253 9.6801321 4
34.456611 10.378147 4
34.145025 10.358616 4
34.321494 11.518568 4
34.438419 13.700778 4
36.220243 13.158217 4
35.684428 16.683663 4
34.73797 16.05972 4
34.551715 18.002248 4
34.27118 19.172849 4
37.167458 19.625964 4
35.402969 20.593007 4
33.522468 22.130623 4
36.569971 24.583491 4
33.084794 23.025349 4
36.131359 27.592202 4
33.158523 26.75779 4
38.615917 35.298405 4
32.554803 1.8244671 4
31.509122 1.5741746 4
36.711287 0.61069588 4
35.859845 6.8060375 4
36.885054 5.8245762 4
36.532915 6.1827038 4
34.22164 8.694365 4
35.716279 11.601526 4
34.946015 11.585407 4
34.723324 12.566701 4
34.810023 12.827747 4
35.379508 13.9578 4
34.012005 16.390606 4
34.324933 14.704206 4
35.827768 17.274995 4
34.712729 17.657528 4
34.789276 18.174045 4
36.068915 17.721875 4
33.71923 20.947242 4
34.921074 21.734424 4
34.542203 21.42799 4
37.591385 23.728702 4
37.063638 28.621305 4
31.508855 27.610123 4
31.698727 26.313757 4
32.317191 0.80231593 4
33.964979 -3.0495575 4
35.819498 2.3538839 4
35.737321 4.4455813 4
36.563809 6.9952729 4
34.410909 9.5353609 4
36.560642 8.323398 4
34.779036 10.006486 4
36.475459 10.714635 4
36.515428 11.057823 4
36.855671 11.567638 4
36.100498 12.241202 4
34.104825 13.793861 4
35.255154 16.184759 4
36.510374 16.804797 4
38.016911 16.95048 4
35.417466 18.226168 4
34.513306 18.927403 4
36.68736 20.59277 4
37.203778 23.048856 4
35.924598 22.069824 4
35.811332 24.377659 4
35.79138 26.805514 4
33.96498 32.233568 4
32.28422 28.291225 4
30.470023 -0.072882748 4
35.562778 2.5370984 4
37.298917 5.5378803 4
34.026062 2.295831 4
39.403003 5.4959833 4
36.189823 6.7245693 4
36.117665 8.0629539 4
35.857398 10.695175 4
37.086879 9.7001588 4
36.978098 11.274658 4
36.319439 12.781904 4
36.681331 14.196972 4
38.02091 14.422042 4
36.555851 16.448994 4
36.940243 17.270238 4
36.071181 18.001434 4
36.546996 18.674646 4
35.95597 19.287979 4
36.087614 20.348529 4
36.650226 22.402337 4
37.243195 25.084793 4
34.192379 27.244982 4
35.074479 24.462401 4
35.518807 26.63528 4
30.445598 29.382602 4
32.171314 -0.675324 4
34.87766 -0.1185103 4
38.271261 8.5832361 4
34.513309 3.6941613 4
34.480338 7.0545361 4
36.921621 6.7490826 4
36.736287 7.6126256 4
36.260504 8.9788863 4
37.179075 10.089023 4
37.592208 11.196035 4
37.188266 12.22257 4
37.394009 12.514642 4
37.560302 13.994958 4
37.234562 16.43228 4
37.495589 17.09677 4
37.179873 17.959153 4
37.179957 19.092293 4
36.874279 20.012775 4
36.738124 21.440474 4
39.575072 22.830598 4
35.979567 21.221372 4
34.49068 25.523864 4
38.340442 20.753944 4
34.884347 29.325459 4
32.17136 29.859404 4
32.792282 1.1454717 4
33.994386 0.33479982 4
39.033056 2.8811902 4
39.076568 5.956844 4
36.216069 5.7141759 4
38.122912 6.9265273 4
39.05046 8.8484782 4
37.384256 8.9810519 4
38.303165 10.123494 4
38.302661 11.224619 4
38.365396 12.567136 4
37.457038 13.3528 4
36.479873 14.859639 4
37.39143 15.561002 4
38.302537 16.839615 4
38.302663 17.959389 4
38.303017 19.063938 4
37.384145 20.204392 4
39.051625 20.331704 4
37.890082 22.696178 4
37.660063 22.822584 4
37.269438 23.342435 4
39.011923 26.257346 4
34.036498 28.888922 4
32.792292 28.038468 4
33.504651 -0.24738848 4
37.13741 2.0854078 4
35.816151 1.7354559 4
36.662063 4.4108561 4
38.440578 4.5748009 4
37.937209 6.5057368 4
37.580618 7.8740015 4
38.49915 8.9911396 4
38.940025 10.089794 4
38.941478 11.224617 4
38.869763 12.21769 4
38.603921 13.04695 4
38.586521 13.744641 4
38.609532 16.147902 4
38.941318 16.835123 4
38.941466 17.959394 4
38.94041 19.092223 4
38.500262 20.191987 4
37.578912 21.30486 4
38.682074 22.039746 4
37.918704 23.936802 4
35.956072 25.012545 4
35.847663 27.428138 4
37.092398 27.043059 4
33.505349 29.422579 4
36.826046 -0.15554497 4
35.380384 1.2364699 4
36.05194 2.4440057 4
37.022235 4.2051816 4
39.04566 3.8280798 4
39.604178 7.9667852 4
38.71295 7.8530223 4
39.629294 8.989445 4
39.629212 10.102053 4
39.629212 11.224624 4
39.629285 12.355023 4
39.955396 13.795812 4
40.705466 15.451123 4
39.951542 15.384659 4
39.629212 16.837166 4
39.629212 17.95939 4
39.629212 19.081961 4
39.629197 20.202476 4
38.713512 21.331907 4
39.620948 21.165869 4
39.023498 23.89917 4
36.969278 24.374258 4
36.055331 26.752826 4
35.39254 27.98203 4
36.865162 29.254365 4
37.503623 -0.11327434 4
37.478014 2.9473725 4
38.515794 5.9446306 4
38.926169 3.1925753 4
39.789611 7.2231756 4
38.917443 6.7325135 4
40.116322 7.8827407 4
40.268876 8.9744718 4
40.269265 10.10222 4
40.269265 11.224618 4
40.26918 12.342414 4
39.837899 13.440596 4
38.95272 14.443436 4
39.836305 15.737222 4
40.269261 16.836775 4
40.269265 17.959394 4
40.269264 19.081793 4
40.268985 20.204933 4
40.051746 21.341286 4
38.909587 22.445305 4
39.295093 24.564295 4
38.791995 25.565557 4
39.210499 24.086711 4
37.090018 26.213984 4
37.476948 29.382655 4
37.28118 1.1285036 4
38.048862 2.874256 4
42.131105 2.7530297 4
42.190697 5.8428119 4
40.042332 5.0646721 4
40.944954 6.7885807 4
40.955878 7.8697243 4
40.955652 8.9791851 4
40.955651 10.102158 4
40.955651 11.224621 4
40.955651 12.347098 4
40.956321 13.493887 4
40.039921 14.692492 4
40.956115 15.689795 4
40.955651 16.836951 4
40.955651 17.959393 4
40.955651 19.081855 4
40.955652 20.204806 4
40.955924 21.313093 4
39.815373 22.256665 4
40.560926 22.251642 4
42.117911 24.052574 4
41.985645 26.463759 4
38.080684 26.356301 4
37.279909 28.05599 4
38.404327 1.1287354 4
38.316862 1.7156334 4
38.556744 2.4747569 4
39.318772 4.3853214 4
40.216833 6.3576279 4
41.214046 6.7561489 4
41.596658 7.8472749 4
41.597067 8.9799959 4
41.59707 10.102158 4
41.59707 11.22462 4
41.59707 12.347072 4
41.596296 13.45531 4
41.196705 14.322676 4
41.596078 15.728829 4
41.59707 16.836918 4
41.59707 17.959393 4
41.59707 19.081855 4
41.597067 20.20403 4
41.596621 21.337619 4
41.15998 22.422813 4
41.764024 22.911103 4
39.351157 24.910556 4
38.716697 26.797243 4
38.237099 27.347931 4
38.404323 28.055327 4
39.456749 1.1083311 4
40.205489 0.10054986 4
39.526112 3.3669635 4
[...]
POINT_DATA 1250
SCALARS m double
LOOKUP_TABLE default
1
1
1
1
1
1
1
1
1
1
1
1
1
1
1
1
1
1
1
1
1
1
1
1
1
1
1
1
1
1
1
1
1
1
1
1
1
1
1
1
1
1
1
1
1
1
1
1
1
1
1
1
1
1
1
1
1
1
1
1
1
1
1
1
1
1
1
1
1
1
1
1
1
1
1
1
1
1
1
1
1
1
1
1
1
1
1
1
1
1
1
1
1
1
1
1
1
1
1
1
1
1
1
1
1
1
1
1
1
1
1
1
1
1
1
1
1
1
1
1
1
1
1
1
1
1
1
1
1
1
1
1
1
1
1
1
1
1
1
1
1
1
1
1
1
1
1
1
1
1
1
1
1
1
1
1
1
1
1
1
1
1
1
1
1
1
1
1
1
1
1
1
1
1
1
1
1
1
1
1
1
1
1
1
1
1
1
1
1
1
1
1
1
1
1
1
1
1
1
1
1
1
1
1
1
1
1
1
1
1
1
1
1
1
1
1
1
1
1
1
1
1
1
1
1
1
1
1
1
1
1
1
1
1
1
1
1
1
1
1
1
1
1
1
1
1
1
1
1
1
1
1
1
1
1
1
1
1
1
1
1
1
1
1
1
1
1
1
1
1
1
1
1
1
1
1
1
1
1
1
1
1
1
1
1
1
1
1
1
1
1
1
1
1
1
1
1
1
1
1
1
1
1
1
1
1
1
1
1
1
1
1
1
1
1
1
1
1
1
1
1
1
1
1
1
1
1
1
1
1
1
1
1
1
1
1
1
1
1
1
1
1
1
1
1
1
1
1
1
1
1
1
1
1
1
1
1
1
1
1
1
1
1
1
1
1
1
1
1
1
1
1
1
1
1
1
1
1
1
1
1
1
1
1
1
1
1
1
1
1
1
1
1
1
1
1
1
1
1
1
1
1
1
1
1
1
1
1
1
1
1
1
1
1
1
1
1
1
1
1
1
1
1
1
1
1
1
1
1
1
1
1
1
1
1
1
1
1
1
1
1
1
1
1
1
1
1
1
1
1
1
1
1
1
1
1
1
1
1
1
1
1
1
1
1
1
1
1
1
1
1
1
1
1
1
1
1
1
1
1
1
1
1
1
1
1
1
1
1
1
1
1
1
1
1
1
1
1
1
1
1
1
1
1
1
1
1
1
1
1
1
1
1
1
1
1
1
1
1
1
1
1
1
1
1
1
1
1
1
1
1
1
1
1
1
1
1
1
1
1
1
1
1
1
1
1
1
1
1
1
1
1
1
1
1
1
1
1
1
1
1
1
1
1
1
1
1
1
1
1
1
1
1
1
1
1
1
1
1
1
1
1
1
1
1
1
1
1
1
1
1
1
1
1
1
1
1
1
1
1
1
1
1
1
1
1
1
1
1
1
1
1
1
1
1
1
1
1
1
1
1
1
1
1
1
1
1
1
1
1
1
1
1
1
1
1
1
1
1
1
1
1
1
1
1
1
1
1
1
1
1
1
1
1
1
1
1
1
1
1
1
1
1
1
1
1
1
1
1
1
1
1
1
1
1
1
1
1
1
1
1
1
1
1
1
1
1
1
1
1
1
1
1
1
1
1
1
1
1
1
1
1
1
1
1
1
1
1
1
1
1
1
1
1
1
1
1
1
1
1
1
1
1
1
1
1
1
1
1
1
1
1
1
1
1
1
1
1
1
1
1
1
1
1
1
1
1
1
1
1
1
1
1
1
1
1
1
1
1
1
1
1
1
1
1
1
1
1
1
1
1
1
1
1
1
1
1
1
1
1
1
1
1
1
1
1
1
1
1
1
1
1
1
1
1
1
1
1
1
1
1
1
1
1
1
1
1
1
1
1
1
1
1
1
1
1
1
1
1
1
1
1
1
1
1
1
1
1
1
1
1
1
1
1
1
1
1
1
1
1
1
1
1
1
1
1
1
1
1
1
1
1
1
1
1
1
1
1
1
1
1
1
1
1
1
1
1
1
1
1
1
1
1
1
1
1
1
1
1
1
1
1
1
1
1
1
1
1
1
1
1
1
1
1
1
1
1
1
1
1
1
1
1
1
1
1
1
1
1
1
1
1
1
1
1
1
1
1
1
1
1
1
1
1
1
1
1
1
1
1
1
1
1
1
1
1
1
1
1
1
1
1
1
1
1
1
1
1
1
1
1
1
1
1
1
1
1
1
1
1
1
1
1
1
1
1
1
1
1
1
1
1
1
1
1
1
1
1
1
1
1
1
1
1
1
1
1
1
1
1
1
1
1
1
1
1
1
1
1
1
1
1
1
1
1
1
1
1
1
1
1
1
1
1
1
1
1
1
1
1
1
1
1
1
1
1
1
1
1
1
1
1
1
1
1
1
1
1
1
1
1
1
1
1
1
1
1
1
1
1
1
1
1
1
1
1
1
1
1
1
1
1
1
1
1
1
1
1
1
1
1
1
1
1
1
1
1
1
1
1
1
1
1
1
1
1
1
1
1
1
1
1
1
1
1
1
1
1
1
1
1
1
1
1
1
1
1
1
1
1
1
1
1
1
1
1
1
1
1
1
1
1
1
1
1
1
1
1
1
1
1
1
1
1
1
1
1
1
1
1
1
1
1
1
1
1
1
1
1
1
1
1
1
1
1
1
1
1
1
1
1
1
1
1
1
1
1
1
1
1
1
1
1
1
1
1
1
1
1
1
1
1
1
1
1
1
1
1
1
1
1
1
1
1
1
1
1
1
1
1
1
1
1
1
1
1
1
1
1
1
1
1
1
1
1
1
1
1
1
1
1
1
1
1
1
1
1
1
1
1
1
1
1
1
1
1
1
1
1
1
1
1
1
1
1
1
1
1
1
1
VECTORS v double
3.4317745 7.5928033 0
4.6859053 -10.073004 0
4.3783779 3.5522287 0
-7.6361441 -7.0270664 0
-3.501668 -4.5457702 0
-2.7892149 1.907132 0
-5.7924334 -5.0222865 0
9.8074664 0.17608689 0
-0.77738651 -0.9579863 0
10.000934 -0.9658018 0
-3.5025889 -1.8652086 0
10.410175 -4.6135809 0
-2.087523 6.6298969 0
6.4816186 4.6357119 0
-2.4360557 -13.329483 0
10.063831 -0.20703086 0
-7.9253871 -9.7635395 0
1.7925375 -7.1284716 0
2.5047094 1.515192 0
3.1810977 -4.7315815 0
-6.6484115 -4.3624629 0
7.7219279 8.473349 0
14.30288 -7.430626 0
6.9588789 7.963796 0
-11.60651 6.9777205 0
2.632105 -13.726701 0
-10.072031 -1.7667127 0
5.4698756 -9.7350149 0
10.256813 -0.03072799 0
1.4980552 -10.625274 0
-10.768046 1.1041517 0
-5.8187002 -13.646837 0
-9.3166831 8.3133691 0
-5.1843156 -5.940632 0
7.8969435 3.0811243 0
5.1278549 -1.1067121 0
-4.9035165 -2.0988287 0
5.6704368 1.2780698 0
6.0686111 0.37467436 0
-7.3766786 -6.5696589 0
9.9847235 0.18296744 0
1.3189112 -5.5728824 0
5.9967555 7.9255392 0
4.2292996 -8.4777911 0
-8.1414897 -3.5459187 0
-0.77910043 13.359397 0
8.10893 -1.6387912 0
5.4841571 9.7288176 0
-2.4335944 8.422244 0
2.6321051 13.726701 0
0.14634022 -9.2724166 0
8.2769452 0.88022181 0
-9.9463678 1.3882032 0
2.6473539 0.55915213 0
12.836401 1.3953002 0
-11.612958 2.8910729 0
3.2818234 4.9121711 0
-2.400693 10.952534 0
4.3680881 -5.5271722 0
2.7988311 -5.0967738 0
-10.725703 1.1277187 0
-3.0486474 -4.2079345 0
12.709398 -5.7936229 0
-1.8418738 10.699644 0
7.7811877 5.9136956 0
-3.5001934 -12.912352 0
-10.358337 0.38705043 0
-3.8062658 -4.0479693 0
14.279787 5.0848492 0
6.6390846 -10.640614 0
10.082712 0.4491592 0
8.0251656 5.2717827 0
-0.031315919 4.8704047 0
6.5128005 0.68206846 0
0.15261427 9.2474113 0
-0.50499578 -3.6701992 0
6.8352218 -10.619045 0
-1.3384789 9.2749578 0
5.5654937 -0.98612594 0
-2.5834589 -6.0371807 0
1.135277 9.9232968 0
2.4164407 -5.5348975 0
-8.5165672 5.3507936 0
0.15182678 16.111328 0
-0.63766044 -10.138691 0
-7.9102308 4.3033767 0
-9.0115033 -0.9113121 0
-9.837273 -1.9201294 0
-9.846572 1.7008066 0
-14.133313 -0.16496422 0
3.4755526 5.4441517 0
3.5530634 -4.2965144 0
0.41525083 6.0608233 0
-7.7273384 15.444349 0
3.331495 6.4590589 0
10.704771 2.4602891 0
12.459426 4.301754 0
-2.1674575 -8.9210103 0
6.8352282 10.61905 0
-0.50495318 3.6706289 0
-6.3238415 4.4843575 0
3.8904325 -2.5941352 0
9.9545108 -5.7543649 0
6.6052074 4.6367836 0
-6.2058588 9.7323799 0
1.176723 -12.09947 0
-9.139798 -5.3422328 0
4.0691924 13.04192 0
-3.5298459 8.4676602 0
-6.4062187 -3.1321179 0
-6.8027226 12.388934 0
11.448427 10.086607 0
8.4673525 1.609805 0
-9.9690516 3.7945485 0
-5.8804651 6.0924299 0
-2.950778 -0.42584257 0
-8.5084859 -2.7303379 0
-2.2004511 2.3907474 0
-6.4233144 7.147084 0
-7.6744662 -9.8778335 0
-6.2975811 -10.312653 0
-8.7953504 -7.0502644 0
8.1848635 4.3643858 0
8.0730176 -4.7933541 0
5.7102926 -6.5990495 0
-1.113087 -6.3282353 0
-1.9961801 -10.92652 0
-7.9273307 -10.260678 0
-5.4853287 18.874067 0
-11.790978 5.0713147 0
-3.4444786 -5.5680417 0
6.0827174 -12.245906 0
7.3139655 -6.4390849 0
4.0811023 -14.516669 0
-3.9408687 -9.9622801 0
3.5699879 13.564077 0
2.2593408 -9.1124403 0
2.9923458 -9.0791986 0
1.4351672 6.5523326 0
5.3342583 9.0946621 0
-0.20392967 1.1216665 0
-9.8234939 -1.609697 0
-2.9085065 -6.4642661 0
-7.8455211 2.8713732 0
-2.4628215 -0.4937395 0
5.9757984 3.6045066 0
4.9429345 9.8002058 0
-10.336732 -7.7068853 0
-1.9955916 10.926688 0
-1.1131059 6.328264 0
-5.8217234 -5.1343683 0
4.4654616 -6.205027 0
-6.4004188 -6.8902131 0
6.147762 6.2691493 0
-7.2332216 -8.8198063 0
-3.8135721 10.417318 0
-7.5711075 -2.15849 0
-6.0122575 7.4375936 0
-7.6638035 8.2391202 0
-10.743376 0.97048867 0
-17.60826 5.5435911 0
-2.3050561 -3.6271804 0
11.384587 10.002168 0
-1.3365528 -12.708983 0
-9.45091 3.3893012 0
-9.9733306 -0.94605018 0
2.2204849 1.1514402 0
15.652833 0.24217683 0
-6.0148663 -2.9267636 0
-9.5556584 -6.3942016 0
-13.124392 4.8652668 0
3.9713793 -3.9628561 0
-6.8869936 6.3263243 0
1.8707657 -3.4155124 0
-5.0935159 5.287333 0
4.8370531 -9.9977527 0
-2.5739424 0.24872291 0
2.1242067 -4.012238 0
-2.5197152 6.3093859 0
3.0426594 5.5906383 0
-8.4514843 2.3916024 0
-5.4746501 6.4742854 0
2.2657251 8.8454085 0
8.7595724 5.3476826 0
-0.0099367094 -19.231076 0
2.50345 2.7632153 0
1.1043358 -14.280228 0
-3.9236446 -8.1760464 0
-8.4514917 -11.168305 0
-13.28516 -11.556339 0
9.9550075 0.93013772 0
-7.0677025 10.836048 0
13.932154 -0.94701634 0
-6.7132123 2.2476042 0
4.6786269 -3.5844836 0
-3.6185827 13.70124 0
-0.78029388 7.9341007 0
2.6511668 4.5907281 0
-5.1990601 -1.9850602 0
4.8370532 9.9977527 0
-4.0333321 -8.9898043 0
-9.8581696 -1.5944298 0
-4.1650714 -11.996166 0
-9.519257 8.7777148 0
2.6666308 -2.6397377 0
-7.6498051 -8.1787204 0
-1.8066791 10.492305 0
-8.4398141 7.0967969 0
-9.1828717 17.624056 0
1.8366169 7.3329832 0
-9.0950903 4.6038262 0
-4.1410555 5.4305262 0
-5.4285822 6.0832727 0
-6.7642131 -6.3824556 0
-0.98353484 6.6164637 0
-10.783063 -13.235991 0
-7.8181587 -0.065747912 0
5.1500436 9.9104585 0
-13.073508 -6.4402912 0
1.4086757 0.11431189 0
2.2192662 -6.8176392 0
3.8871246 -4.39171 0
-1.3765511 12.254052 0
-9.8712647 1.6058656 0
-4.3227896 2.9125697 0
1.4453397 -1.2694373 0
-3.9332681 -8.2576484 0
-3.1897122 -2.2785094 0
-2.6263045 0.44203243 0
5.0042019 -6.7927629 0
-13.767511 0.32338973 0
-2.5122855 4.9447678 0
-3.2602524 11.647853 0
10.723278 8.8288164 0
3.6589634 -3.2892141 0
5.0415203 -9.7693213 0
1.1111609 -9.9055457 0
-10.804942 -3.1348501 0
5.8709407 -0.60918694 0
8.531861 -0.90441024 0
18.195512 -9.6673092 0
-5.3685686 -8.4128832 0
2.7148836 -12.011139 0
-1.2500225 -6.8991119 0
2.940842 -4.2761508 0
-5.8506603 4.5654661 0
-4.6646683 -5.1551528 0
-1.5407575 0.56330829 0
-3.9332658 8.2576427 0
1.2992296 0.75060045 0
11.630585 -4.1569898 0
2.3762029 5.6764622 0
2.2856969 2.3129199 0
-7.3171915 -7.286333 0
9.1579544 -0.48009949 0
0.30537485 -6.2381474 0
0.010571656 -8.8059089 0
-6.8483549 8.3254913 0
6.0659016 -6.2219909 0
-9.9168253 1.7227728 0
-5.886709 6.6872642 0
1.4233383 9.4782009 0
5.7693478 -9.4460281 0
-3.4546299 6.3308278 0
-2.8938542 11.849255 0
-9.8021932 0.92287958 0
2.5873483 -10.40583 0
-8.4102418 1.9091333 0
-9.2913407 2.2705391 0
2.9977477 8.1500171 0
-0.13593464 7.1762639 0
-6.720904 8.5237837 0
-6.6336625 0.82414787 0
2.6956427 -5.5349882 0
11.512424 5.1746565 0
-7.9831979 -7.1923279 0
-9.7692448 -5.4748505 0
9.9337507 6.3509485 0
-10.430939 0.06876268 0
-4.9038068 -1.3883011 0
-7.4031101 5.1396993 0
8.9020236 6.8937843 0
-10.013399 -0.00082470954 0
-10.068403 -0.25645778 0
9.6605666 -1.3743761 0
-9.8478207 -1.5035209 0
0.22396386 -8.6752414 0
-9.7738608 3.1306004 0
-1.9736147 -9.7848679 0
1.3500441 9.4403999 0
-9.9998119 -0.007523437 0
-10.002387 0.14873248 0
6.9346913 -5.3218641 0
-6.7584414 -4.9554898 0
13.093964 -1.4613878 0
-13.730736 -9.9783846 0
-10.992839 0.17963337 0
10.125115 -4.899082 0
-9.7397486 5.5710735 0
-7.9829094 7.1930784 0
-10.004084 0.098003557 0
-6.2389801 -8.6257574 0
3.6599429 1.0186228 0
-6.8224183 8.4065732 0
10.993354 -1.2048321 0
10.167572 0.182824 0
6.618347 5.6820682 0
-9.9927392 0.0026794877 0
-9.9765431 0.70949118 0
-9.9978881 -6.8821368e-05 0
-7.4048489 7.4087777 0
-8.7432261 -3.6403123 0
-9.9119418 1.2740881 0
-9.9362033 -1.26363 0
-10.001596 0.090888942 0
-9.9970912 -0.00030984608 0
-9.9825578 -0.59544171 0
-10.004207 0.00061640699 0
6.5855894 -5.8166475 0
7.128622 4.2469672 0
2.5479537 -3.4750124 0
-15.094001 -1.5540942 0
3.6029058 -1.2474936 0
-5.9599958 8.8630446 0
-10.005554 -0.1040719 0
-11.477888 -4.9412204 0
-9.6319085 -0.37166248 0
-4.2184547 -9.1454194 0
2.4224132 0.10800697 0
3.4694499 -10.618462 0
-11.089805 6.839765 0
-10.075098 0.20885207 0
-10.244272 0.58225221 0
9.9724842 -0.57627703 0
9.9990813 -5.6471653e-05 0
7.2861382 -6.0598212 0
-8.6223564 -5.5857753 0
9.5330367 -3.3765558 0
-8.5378939 5.7285924 0
9.9957957 -0.080314666 0
9.9988975 1.218408e-05 0
9.9801555 0.48333837 0
-10.193557 -0.51437908 0
-10.100703 -0.33480348 0
-2.9262069 -9.1011074 0
0.78677334 4.3410472 0
-5.3003601 4.9638181 0
-4.1344877 8.6115466 0
-10.14771 -0.26531951 0
-11.47444 4.9083261 0
-4.5381128 -7.0589448 0
-8.8836125 -3.3854755 0
-6.0124169 -1.157464 0
-9.058129 -4.9935307 0
-3.8024385 0.044630204 0
-10.686213 6.6450524 0
-9.9602528 -0.056902029 0
-9.9964978 0.31756211 0
-9.9982751 -0.0035065921 0
-9.9982962 0.00012414609 0
-9.9949277 0.26367803 0
8.1472999 5.9264563 0
8.1927012 5.8261314 0
8.2058385 -5.698482 0
-9.9983054 0.0080909234 0
-9.9982955 -8.3419602e-05 0
-9.9982781 0.0035442334 0
-10.000555 -0.055133527 0
-9.9508667 0.072476483 0
-9.558309 -8.8084825 0
-2.9142546 1.474632 0
-9.0418293 3.2568061 0
-8.7887043 2.4528562 0
-8.8486152 3.5584664 0
-4.2503372 6.5358268 0
-1.6482344 -7.0152532 0
0.18052053 5.1850824 0
-3.5815309 1.6676743 0
-6.7017875 -10.292935 0
-10.454423 7.357203 0
-9.9732741 -0.022355851 0
4.0045627 1.3579451 0
9.9928113 -0.25133168 0
10.000158 0.0028330135 0
10.000153 -0.00010454494 0
9.9970807 -0.21549647 0
-9.5914291 -1.5088905 0
-9.6249535 -1.3191883 0
-9.7125045 1.1188257 0
10.00007 -0.0067620942 0
10.00015 6.578855e-05 0
10.000157 -0.0028712795 0
9.9969115 0.037790516 0
2.5726059 0.71487284 0
-10.149497 -0.025637635 0
-6.7862669 -0.65491798 0
-7.2689108 -0.20363732 0
1.1874048 2.8273629 0
-2.7510514 -5.4729929 0
-1.8533709 7.546405 0
-10.010379 0.007036851 0
0.3642824 8.4405336 0
0.76320226 -8.1137923 0
6.1730682 3.3751243 0
6.6987815 -8.724892 0
-9.344158 2.0248031 0
-9.9895265 0.44287881 0
-9.9992874 -0.016942053 0
-9.9993024 -1.0508047e-07 0
-9.9993026 5.7097034e-07 0
-9.9992868 0.00050592134 0
-9.9714554 0.8066187 0
-9.9794706 0.84324804 0
-10.011771 -0.84561712 0
-9.9992977 0.00069510037 0
-9.9993025 -4.8377681e-07 0
-9.9993026 2.6922426e-07 0
-9.9992863 0.016218941 0
-9.9876303 -0.48455265 0
-14.6572 -4.156592 0
-2.8417159 -7.7498566 0
5.8730964 3.1312394 0
-2.0760604 9.5333218 0
0.82101514 -7.8250255 0
-10.056931 0.023274303 0
-10.000582 0.017713041 0
-11.450642 -8.7129371 0
-8.1348935 0.018435222 0
-10.030026 -0.39803297 0
-10.252972 5.5524059 0
3.3162838 -0.92430022 0
9.9905618 -0.40670618 0
10.001298 0.013805233 0
10.001324 7.5406182e-07 0
10.001324 -6.3264379e-07 0
10.001331 -0.00045964022 0
9.9732817 -0.65625259 0
-9.47479 -3.5383551 0
9.9681795 0.66194525 0
10.00132 -0.00057541657 0
10.001324 7.9845804e-07 0
10.001324 -7.0256244e-07 0
10.001301 -0.013228147 0
9.9889825 0.44364322 0
-9.9976422 -0.34341286 0
0.5900677 -8.9375095 0
-7.164716 10.773783 0
-6.0772703 1.4256733 0
-12.99427 7.3238151 0
-10.000361 -0.012916153 0
-10.623397 -0.2069906 0
-6.4494121 -10.207734 0
-10.02164 0.0010890991 0
-9.8599526 1.9516284 0
-7.6984029 -7.1202723 0
-9.9267933 -1.3458551 0
-10.000201 0.091575297 0
-10.000565 -5.254173e-07 0
-10.000566 7.3468128e-08 0
-10.000566 1.5063736e-08 0
-10.000566 1.5506337e-05 0
-10.000518 -1.0807587e-05 0
-0.7344099 11.262691 0
-10.00045 -0.00090721429 0
-10.000566 1.6981165e-05 0
-10.000566 -1.4779846e-08 0
-10.000566 -8.6666398e-08 0
-10.000565 9.7893769e-07 0
-10.000149 -0.098361021 0
-9.9255264 1.3777997 0
-4.3487362 5.9713898 0
-9.8511531 -1.9103386 0
-10.006452 0.0020655161 0
-6.7161274 10.487073 0
-10.191884 0.050847228 0
-10.007679 0.0078998974 0
-10.013555 0.052150499 0
-9.9883163 -0.040897989 0
-4.2926009 -2.5711085 0
7.6004614 5.5484533 0
9.9248245 1.0533632 0
10.002092 -0.074545137 0
10.002453 -4.8164974e-07 0
10.002453 -6.0910821e-08 0
10.002453 1.6371145e-10 0
10.002453 -1.2487868e-05 0
10.002425 -0.00011166879 0
0.1859249 -8.3872899 0
10.002286 -0.00033297422 0
10.002452 -1.7226609e-05 0
10.002453 2.820383e-10 0
10.002453 6.1128539e-08 0
10.002453 1.5376421e-07 0
10.002049 0.080146111 0
9.9208839 -1.0851589 0
-9.7302314 2.4940978 0
-1.7622642 0.25464788 0
-9.9856188 0.048387144 0
-10.012505 -0.046213546 0
-10.007726 -0.0081182724 0
-10.000035 0.010560755 0
-9.9978684 0.011951342 0
-10.184768 6.5202855 0
6.9220064 6.2742861 0
-10.056005 0.26282898 0
-10.006415 0.054139287 0
-10.001589 -0.00020775244 0
-10.001586 4.5550722e-08 0
-10.001586 1.7050865e-09 0
-10.001586 1.8974464e-11 0
-10.001586 -6.8076887e-08 0
-10.001582 -2.5988626e-05 0
-10.000576 7.2111452e-05 0
-10.00159 -1.2638765e-05 0
-10.001586 -1.0679703e-07 0
-10.001586 2.6753186e-11 0
-10.001586 -1.8464186e-09 0
-10.001586 -3.0152534e-08 0
-10.001586 -1.0411994e-06 0
-10.001228 -0.075417832 0
-0.46438074 -10.727046 0
6.9782534 -6.2194344 0
-10.19858 -5.8996607 0
-9.9966566 -0.019597733 0
-10.000036 -0.010561106 0
-10.000004 0.010543829 0
-10.00034 0.00020177983 0
-10.004066 0.00042957377 0
-10.064273 0.18014274 0
-9.9372644 -0.57080137 0
10.000478 -0.059622391 0
10.003081 0.00014632257 0
10.003085 1.9007738e-08 0
10.003085 2.905537e-11 0
10.003085 2.2047902e-12 0
10.003085 -1.156079e-09 0
10.003088 1.1957775e-05 0
10.003118 -6.2638777e-05 0
10.003084 1.5548916e-05 0
10.003085 1.2027824e-10 0
10.003085 3.5597829e-12 0
10.003085 -2.3593655e-13 0
10.003085 -3.0192194e-08 0
10.003085 7.7271958e-06 0
10.002705 0.062738772 0
0.33544072 9.1624166 0
-10.067473 -0.19472263 0
-10.003989 -0.00081734075 0
-10.000216 -9.9859606e-05 0
-10.000003 -0.010542351 0
-9.9999991 0.010536679 0
-10.000004 -5.0689075e-05 0
-10.000022 2.4073653e-05 0
-10.001644 0.0044022731 0
-9.8647317 1.8708584 0
-10.002193 0.00092726534 0
-10.00218 1.4750407e-06 0
-10.00218 1.6885931e-09 0
-10.00218 -3.3889961e-12 0
-10.00218 -2.2278523e-13 0
-10.00218 -4.800765e-12 0
-10.002179 -1.6445344e-07 0
-10.002179 -1.7510677e-08 0
-10.002179 2.0746878e-07 0
-10.00218 -1.0778918e-11 0
-10.00218 -2.1744154e-13 0
-10.00218 -1.3610923e-13 0
-10.00218 -1.7684436e-09 0
-10.00218 -1.2564975e-06 0
-10.002201 -0.00069156226 0
-9.8546085 -1.9423268 0
-10.00188 -0.0053432932 0
-10.000021 -2.7490196e-05 0
-10.000003 5.1111529e-05 0
-9.9999991 -0.010536669 0
-9.9999569 0.010540005 0
-9.9999474 -5.2554804e-05 0
-9.9999494 5.2326841e-06 0
-10.000072 0.00029852762 0
9.844344 -1.5261121 0
10.000082 -0.00082148371 0
10.000102 -1.8316341e-06 0
10.000102 -2.9433425e-10 0
10.000102 -8.3457878e-14 0
10.000102 -8.3281083e-14 0
10.000102 -8.7211528e-13 0
10.000102 6.6231071e-11 0
10.000102 -1.0183438e-10 0
10.000102 4.08446e-11 0
10.000102 -7.925793e-13 0
10.000102 1.7447809e-13 0
10.000102 6.5506663e-14 0
10.000102 1.6278246e-10 0
10.000102 1.3707865e-06 0
10.000078 0.00064625243 0
9.8320918 1.5850258 0
-10.000094 -0.00031775386 0
-9.9999498 -5.9065346e-06 0
-9.9999474 5.2554821e-05 0
-9.9999569 -0.010540005 0
-10.009957 0.0099568719 0
-10.01054 -4.3093369e-05 0
-10.010537 -1.1870114e-07 0
-10.010559 2.6507225e-05 0
-10.011813 -1.8455324e-05 0
-10.01188 2.1009089e-06 0
-10.011881 3.7587552e-08 0
-10.011881 2.2557095e-11 0
-10.011881 6.1503929e-14 0
-10.011881 -5.7187208e-15 0
-10.011881 4.7047291e-15 0
-10.011881 5.9520075e-13 0
-10.011881 -7.3580545e-13 0
-10.011881 -7.0559692e-15 0
-10.011881 -2.9624767e-14 0
-10.011881 6.0760808e-15 0
-10.011881 -3.7604409e-14 0
-10.011881 -1.694414e-11 0
-10.011881 -3.8829038e-08 0
-10.01188 -2.1346236e-06 0
-10.01181 2.00138e-05 0
-10.01056 -2.6713754e-05 0
-10.010537 1.1744925e-07 0
-10.01054 4.309337e-05 0
-10.009957 -0.0099568719 0
-3.5495047 7.4029759 0
-5.7869682 -5.5240171 0
7.6974018 6.5480761 0
4.8820658 -1.9003018 0
12.743949 1.3844962 0
-1.6851966 -2.4821887 0
5.4237399 -7.6878151 0
1.474371 2.3871499 0
0.87408103 9.1289528 0
-9.8953653 1.1820314 0
8.7832739 -4.8070549 0
-17.317411 -1.8310459 0
3.820965 8.1490614 0
-7.6511768 -2.6277161 0
-7.2543499 -7.3033346 0
-10.001567 -0.056780379 0
3.56262 0.32212936 0
-2.7978782 -9.6350705 0
2.2273922 -13.918128 0
-2.4380934 -3.355032 0
4.4722625 -3.1054857 0
-5.5987462 8.7633566 0
6.318492 -6.5877408 0
-5.41516 8.4311052 0
-3.4985513 10.04072 0
-2.632105 -13.726701 0
14.707029 -1.5191302 0
-5.4692233 -9.7473127 0
-5.7302088 -2.3239286 0
-3.8949429 3.4696473 0
6.5369059 -3.7490142 0
12.325148 13.515682 0
-11.014731 2.9207398 0
9.7219965 2.6784922 0
-10.017743 -0.23270078 0
-1.5945376 2.9337236 0
9.1709941 13.440885 0
9.7220542 3.7344785 0
10.687488 -4.0612579 0
-10.278983 -0.58275606 0
-10.572085 0.81670119 0
-8.2678061 -15.533084 0
2.0211602 -14.490187 0
-2.0871001 -6.5926164 0
4.4108239 -5.3488023 0
-8.4384358 0.49662403 0
-8.4115932 -11.9566 0
-5.4844 9.7258971 0
7.4844712 6.923276 0
-2.6321051 13.726701 0
-0.1473879 -9.2710703 0
-13.5763 -4.4630281 0
-0.015473688 7.2386039 0
9.0612419 2.5655132 0
-10.532652 -8.1748133 0
-2.1614415 10.525955 0
-8.1695632 -5.4242618 0
6.2259963 -12.887071 0
6.173133 -0.6944745 0
-5.7009407 2.5541145 0
9.2666214 -3.9278553 0
2.2920109 -8.828792 0
13.313576 4.0006056 0
-10.215963 0.5850556 0
-0.34976476 11.365506 0
-1.4568315 -9.6734557 0
3.0767037 10.790564 0
-3.1276777 3.0497209 0
-2.4039179 3.4250746 0
7.9184624 7.9552493 0
-7.2029256 3.1951534 0
-5.5799207 4.3957313 0
0.33371777 5.4975826 0
-11.106782 -5.1495703 0
-0.15229945 9.248539 0
0.50495668 -3.6698821 0
-6.8352218 -10.619045 0
11.097237 3.4285396 0
-3.7267854 -6.25795 0
3.9484414 5.398157 0
7.5720025 8.241739 0
4.7921092 -1.3466435 0
4.3571316 6.7381782 0
-12.044566 -4.6104327 0
0.8487805 10.169063 0
-2.0067837 -4.9097713 0
1.1041964 -2.8392304 0
7.4065826 9.3390687 0
9.7931242 -2.2479468 0
-3.2571973 5.0158537 0
0.19455952 -9.2421139 0
12.334362 -1.4857129 0
-2.3082676 -6.0798469 0
-3.057814 -3.7335218 0
1.779368 -7.7876389 0
0.2892342 5.4288499 0
6.0807689 10.155431 0
2.6954539 -9.5778903 0
-6.8352276 10.619035 0
0.50496188 3.6706972 0
-13.224831 -4.2636728 0