# vtk DataFile Version 4.0
hesp visualization file
ASCII
DATASET UNSTRUCTURED_GRID
POINTS 32 double
-1.1820469 0.37880633 4
-2.374211 2.1728509 4
-2.374211 3.4394593 4
-1.1820469 5.2335039 4
-1.0461897 -2.1814655 4
-0.014630956 1.7303565 4
-0.014630956 3.8819537 4
-1.0461897 7.7937758 4
4.6527541 -5.1762455 4
1.9915957 -0.65110563 4
1.9915957 6.2634159 4
4.6527541 10.788556 4
8.0382475 -5.4154078 4
9.0666724 1.2101151 4
9.0666724 4.4021952 4
8.0382475 11.027718 4
13.574063 -5.4154078 4
12.545638 1.2101151 4
12.545638 4.4021952 4
13.574063 11.027718 4
16.959556 -5.1762455 4
19.620715 -0.65110563 4
19.620715 6.2634159 4
16.959556 10.788556 4
22.6585 -2.1814655 4
21.626941 1.7303565 4
21.626941 3.8819537 4
22.6585 7.7937758 4
22.794357 0.37880633 4
23.986521 2.1728509 4
23.986521 3.4394593 4
22.794357 5.2335039 4
CELLS 0 0
CELL_TYPES 0
POINT_DATA 32
SCALARS m double
LOOKUP_TABLE default
1
1
1
1
1
1
1
1
1
1
1
1
1
1
1
1
1
1
1
1
1
1
1
1
1
1
1
1
1
1
1
1
VECTORS v double
-10.548247 -1.1922133 0
-11.927093 0.20933605 0
-11.927093 -0.20933605 0
-10.548247 1.1922133 0
-12.473693 -4.556669 0
-9.784592 -0.25388848 0
-9.784592 0.25388848 0
-12.473693 4.556669 0
-6.2402556 -8.7278333 0
-8.3086825 -3.1846178 0
-8.3086825 3.1846178 0
-6.2402556 8.7278333 0
-3.0727871 -7.7755306 0
-1.4038393 -0.91555216 0
-1.4038393 0.91555216 0
-3.0727871 7.7755306 0
3.0727871 -7.7755306 0
1.4038393 -0.91555216 0
1.4038393 0.91555216 0
3.0727871 7.7755306 0
6.2402556 -8.7278333 0
8.3086825 -3.1846178 0
8.3086825 3.1846178 0
6.2402556 8.7278333 0
12.473693 -4.556669 0
9.784592 -0.25388848 0
9.784592 0.25388848 0
12.473693 4.556669 0
10.548247 -1.1922133 0
11.927093 0.20933605 0
11.927093 -0.20933605 0
10.548247 1.1922133 0
