# vtk DataFile Version 4.0
hesp visualization file
ASCII
DATASET UNSTRUCTURED_GRID
POINTS 1250 double
31.503815 1.4006522 4
30.572105 2.4880249 4
30.514573 3.3670204 4
30.51455 4.4898476 4
30.51455 5.61231 4
30.51455 6.7347723 4
30.51455 7.8572343 4
30.51455 8.9796964 4
30.51455 10.102158 4
30.51455 11.22462 4
30.51455 12.347083 4
30.51455 13.469545 4
30.51455 14.592007 4
30.51455 15.714469 4
30.51455 16.836931 4
30.51455 17.959393 4
30.51455 19.081855 4
30.51455 20.204317 4
30.51455 21.326779 4
30.51455 22.449241 4
30.51455 23.571703 4
30.51455 24.694166 4
30.514573 25.816993 4
30.572105 26.695988 4
31.503815 27.783361 4
31.553974 -0.4079514 4
30.862572 2.4310979 4
30.812268 3.3681529 4
30.812267 4.4898489 4
30.812267 5.6123104 4
30.812267 6.7347723 4
30.812267 7.8572343 4
30.812267 8.9796964 4
30.812267 10.102158 4
30.812267 11.22462 4
30.812267 12.347083 4
30.812267 13.469545 4
30.812267 14.592007 4
30.812267 15.714469 4
30.812267 16.836931 4
30.812267 17.959393 4
30.812267 19.081855 4
30.812267 20.204317 4
30.812267 21.326779 4
30.812267 22.449241 4
30.812267 23.571703 4
30.812267 24.694164 4
30.812268 25.81586 4
30.862572 26.752915 4
31.553974 29.591965 4
31.092431 1.594796 4
31.63376 3.0366176 4
31.841202 3.366016 4
31.841251 4.4898467 4
31.841251 5.6123101 4
31.841251 6.7347723 4
31.841251 7.8572343 4
31.841251 8.9796964 4
31.841251 10.102158 4
31.841251 11.22462 4
31.841251 12.347083 4
31.841251 13.469545 4
31.841251 14.592007 4
31.841251 15.714469 4
31.841251 16.836931 4
31.841251 17.959393 4
31.841251 19.081855 4
31.841251 20.204317 4
31.841251 21.326779 4
31.841251 22.449241 4
31.841251 23.571703 4
31.841251 24.694167 4
31.841202 25.817998 4
31.63376 26.147396 4
31.09243 27.589217 4
31.822619 0.037382304 4
32.979407 1.8568943 4
32.139034 3.3682048 4
32.139139 4.4898491 4
32.139139 5.6123103 4
32.139139 6.7347723 4
32.139139 7.8572343 4
32.139139 8.9796964 4
32.139139 10.102158 4
32.139139 11.22462 4
32.139139 12.347083 4
32.139139 13.469545 4
32.139139 14.592007 4
32.139139 15.714469 4
32.139139 16.836931 4
32.139139 17.959393 4
32.139139 19.081855 4
32.139139 20.204317 4
32.139139 21.326779 4
32.139139 22.449241 4
32.139139 23.571703 4
32.139139 24.694164 4
32.139034 25.815808 4
32.979407 27.327119 4
31.822619 29.146631 4
33.22289 1.9247976 4
32.267319 2.4166084 4
33.167836 3.3669107 4
33.167834 4.4898476 4
33.167834 5.6123102 4
33.167834 6.7347723 4
33.167834 7.8572343 4
33.167834 8.9796964 4
33.167834 10.102158 4
33.167834 11.22462 4
33.167834 12.347083 4
33.167834 13.469545 4
33.167834 14.592007 4
33.167834 15.714469 4
33.167834 16.836931 4
33.167834 17.959393 4
33.167834 19.081855 4
33.167834 20.204317 4
33.167834 21.326779 4
33.167834 22.449241 4
33.167834 23.571703 4
33.167834 24.694166 4
33.167836 25.817103 4
32.267319 26.767405 4
33.22289 27.259216 4
32.458281 0.96162111 4
33.911073 2.0768656 4
33.465967 3.3676252 4
33.465971 4.4898485 4
33.465971 5.6123103 4
33.465971 6.7347723 4
33.465971 7.8572343 4
33.465971 8.9796964 4
33.465971 10.102158 4
33.465971 11.22462 4
33.465971 12.347083 4
33.465971 13.469545 4
33.465971 14.592007 4
33.465971 15.714469 4
33.465971 16.836931 4
33.465971 17.959393 4
33.465971 19.081855 4
33.465971 20.204317 4
33.465971 21.326779 4
33.465971 22.449241 4
33.465971 23.571703 4
33.465971 24.694165 4
33.465967 25.816388 4
33.911073 27.107147 4
32.458281 28.222392 4
33.669705 1.6200484 4
34.479358 2.5225803 4
34.494346 3.367294 4
34.494347 4.4898482 4
34.494347 5.6123102 4
34.494347 6.7347723 4
34.494347 7.8572343 4
34.494347 8.9796964 4
34.494347 10.102158 4
34.494347 11.22462 4
34.494347 12.347083 4
34.494347 13.469545 4
34.494347 14.592007 4
34.494347 15.714469 4
34.494347 16.836931 4
34.494347 17.959393 4
34.494347 19.081855 4
34.494347 20.204317 4
34.494347 21.326779 4
34.494347 22.449241 4
34.494347 23.571703 4
34.494347 24.694165 4
34.494346 25.816719 4
34.479359 26.661433 4
33.669705 27.563965 4
35.423468 0.48416651 4
34.698342 2.2125575 4
34.792653 3.3674159 4
34.792655 4.4898482 4
34.792655 5.6123102 4
34.792655 6.7347723 4
34.792655 7.8572343 4
34.792655 8.9796964 4
34.792655 10.102158 4
34.792655 11.22462 4
34.792655 12.347083 4
34.792655 13.469545 4
34.792655 14.592007 4
34.792655 15.714469 4
34.792655 16.836931 4
34.792655 17.959393 4
34.792655 19.081855 4
34.792655 20.204317 4
34.792655 21.326779 4
34.792655 22.449241 4
34.792655 23.571703 4
34.792655 24.694165 4
34.792653 25.816597 4
34.698342 26.971456 4
35.423468 28.699847 4
35.087427 1.3952198 4
35.822722 2.2764983 4
35.820855 3.3673815 4
35.820855 4.4898482 4
35.820855 5.6123102 4
35.820855 6.7347723 4
35.820855 7.8572343 4
35.820855 8.9796964 4
35.820855 10.102158 4
35.820855 11.22462 4
35.820855 12.347083 4
35.820855 13.469545 4
35.820855 14.592007 4
35.820855 15.714469 4
35.820855 16.836931 4
35.820855 17.959393 4
35.820855 19.081855 4
35.820855 20.204317 4
35.820855 21.326779 4
35.820855 22.449241 4
35.820855 23.571703 4
35.820855 24.694165 4
35.820855 25.816632 4
35.822722 26.907515 4
35.087427 27.788793 4
36.024604 1.1236549 4
36.116044 2.2361407 4
36.118654 3.3673873 4
36.118654 4.4898482 4
36.118654 5.6123102 4
36.118654 6.7347723 4
36.118654 7.8572343 4
36.118654 8.9796964 4
36.118654 10.102158 4
36.118654 11.22462 4
36.118654 12.347083 4
36.118654 13.469545 4
36.118654 14.592007 4
36.118654 15.714469 4
36.118654 16.836931 4
36.118654 17.959393 4
36.118654 19.081855 4
36.118654 20.204317 4
36.118654 21.326779 4
36.118654 22.449241 4
36.118654 23.571703 4
36.118654 24.694165 4
36.118654 25.816626 4
36.116044 26.947873 4
36.024604 28.060358 4
37.147082 1.1236563 4
37.147082 2.244931 4
37.147082 3.3673861 4
37.147082 4.4898482 4
37.147082 5.6123102 4
37.147082 6.7347723 4
37.147082 7.8572343 4
37.147082 8.9796964 4
37.147082 10.102158 4
37.147082 11.22462 4
37.147082 12.347083 4
37.147082 13.469545 4
37.147082 14.592007 4
37.147082 15.714469 4
37.147082 16.836931 4
37.147082 17.959393 4
37.147082 19.081855 4
37.147082 20.204317 4
37.147082 21.326779 4
37.147082 22.449241 4
37.147082 23.571703 4
37.147082 24.694165 4
37.147082 25.816627 4
37.147082 26.939082 4
37.147082 28.060357 4
38.269545 1.1236563 4
38.269545 2.244931 4
38.269545 3.3673861 4
38.269545 4.4898482 4
38.269545 5.6123102 4
38.269545 6.7347723 4
38.269545 7.8572343 4
38.269545 8.9796964 4
38.269545 10.102158 4
38.269545 11.22462 4
38.269545 12.347083 4
38.269545 13.469545 4
38.269545 14.592007 4
38.269545 15.714469 4
38.269545 16.836931 4
38.269545 17.959393 4
38.269545 19.081855 4
38.269545 20.204317 4
38.269545 21.326779 4
38.269545 22.449241 4
38.269545 23.571703 4
38.269545 24.694165 4
38.269545 25.816627 4
38.269545 26.939082 4
38.269545 28.060357 4
39.392007 1.1236563 4
39.392007 2.244931 4
39.392007 3.3673861 4
39.392007 4.4898482 4
39.392007 5.6123102 4
39.392007 6.7347723 4
39.392007 7.8572343 4
39.392007 8.9796964 4
39.392007 10.102158 4
39.392007 11.22462 4
39.392007 12.347083 4
39.392007 13.469545 4
39.392007 14.592007 4
39.392007 15.714469 4
39.392007 16.836931 4
39.392007 17.959393 4
39.392007 19.081855 4
39.392007 20.204317 4
39.392007 21.326779 4
39.392007 22.449241 4
39.392007 23.571703 4
39.392007 24.694165 4
39.392007 25.816627 4
39.392007 26.939082 4
39.392007 28.060357 4
40.514469 1.1236563 4
40.514469 2.244931 4
40.514469 3.3673861 4
40.514469 4.4898482 4
40.514469 5.6123102 4
40.514469 6.7347723 4
40.514469 7.8572343 4
40.514469 8.9796964 4
40.514469 10.102158 4
40.514469 11.22462 4
40.514469 12.347083 4
40.514469 13.469545 4
40.514469 14.592007 4
40.514469 15.714469 4
40.514469 16.836931 4
40.514469 17.959393 4
40.514469 19.081855 4
40.514469 20.204317 4
40.514469 21.326779 4
40.514469 22.449241 4
40.514469 23.571703 4
40.514469 24.694165 4
40.514469 25.816627 4
40.514469 26.939082 4
40.514469 28.060357 4
41.636931 1.1236563 4
41.636931 2.244931 4
41.636931 3.3673861 4
41.636931 4.4898482 4
41.636931 5.6123102 4
41.636931 6.7347723 4
41.636931 7.8572343 4
41.636931 8.9796964 4
41.636931 10.102158 4
41.636931 11.22462 4
41.636931 12.347083 4
41.636931 13.469545 4
41.636931 14.592007 4
41.636931 15.714469 4
41.636931 16.836931 4
41.636931 17.959393 4
41.636931 19.081855 4
41.636931 20.204317 4
41.636931 21.326779 4
41.636931 22.449241 4
41.636931 23.571703 4
41.636931 24.694165 4
41.636931 25.816627 4
41.636931 26.939082 4
41.636931 28.060357 4
42.759393 1.1236563 4
42.759393 2.244931 4
42.759393 3.3673861 4
42.759393 4.4898482 4
42.759393 5.6123102 4
42.759393 6.7347723 4
42.759393 7.8572343 4
42.759393 8.9796964 4
42.759393 10.102158 4
42.759393 11.22462 4
42.759393 12.347083 4
42.759393 13.469545 4
42.759393 14.592007 4
42.759393 15.714469 4
42.759393 16.836931 4
42.759393 17.959393 4
42.759393 19.081855 4
42.759393 20.204317 4
42.759393 21.326779 4
42.759393 22.449241 4
42.759393 23.571703 4
42.759393 24.694165 4
42.759393 25.816627 4
42.759393 26.939082 4
42.759393 28.060357 4
43.881855 1.1236563 4
43.881855 2.244931 4
43.881855 3.3673861 4
43.881855 4.4898482 4
43.881855 5.6123102 4
43.881855 6.7347723 4
43.881855 7.8572343 4
43.881855 8.9796964 4
43.881855 10.102158 4
43.881855 11.22462 4
43.881855 12.347083 4
43.881855 13.469545 4
43.881855 14.592007 4
43.881855 15.714469 4
43.881855 16.836931 4
43.881855 17.959393 4
43.881855 19.081855 4
43.881855 20.204317 4
43.881855 21.326779 4
43.881855 22.449241 4
43.881855 23.571703 4
43.881855 24.694165 4
43.881855 25.816627 4
43.881855 26.939082 4
43.881855 28.060357 4
45.004317 1.1236563 4
45.004317 2.244931 4
45.004317 3.3673861 4
45.004317 4.4898482 4
45.004317 5.6123102 4
45.004317 6.7347723 4
45.004317 7.8572343 4
45.004317 8.9796964 4
45.004317 10.102158 4
45.004317 11.22462 4
45.004317 12.347083 4
45.004317 13.469545 4
45.004317 14.592007 4
45.004317 15.714469 4
45.004317 16.836931 4
45.004317 17.959393 4
45.004317 19.081855 4
45.004317 20.204317 4
45.004317 21.326779 4
45.004317 22.449241 4
45.004317 23.571703 4
45.004317 24.694165 4
45.004317 25.816627 4
45.004317 26.939082 4
45.004317 28.060357 4
46.126779 1.1236563 4
46.126779 2.244931 4
[...]
POINT_DATA 1250
SCALARS m double
LOOKUP_TABLE default
1
1
1
1
1
1
1
1
1
1
1
1
1
1
1
1
1
1
1
1
1
1
1
1
1
1
1
1
1
1
1
1
1
1
1
1
1
1
1
1
1
1
1
1
1
1
1
1
1
1
1
1
1
1
1
1
1
1
1
1
1
1
1
1
1
1
1
1
1
1
1
1
1
1
1
1
1
1
1
1
1
1
1
1
1
1
1
1
1
1
1
1
1
1
1
1
1
1
1
1
1
1
1
1
1
1
1
1
1
1
1
1
1
1
1
1
1
1
1
1
1
1
1
1
1
1
1
1
1
1
1
1
1
1
1
1
1
1
1
1
1
1
1
1
1
1
1
1
1
1
1
1
1
1
1
1
1
1
1
1
1
1
1
1
1
1
1
1
1
1
1
1
1
1
1
1
1
1
1
1
1
1
1
1
1
1
1
1
1
1
1
1
1
1
1
1
1
1
1
1
1
1
1
1
1
1
1
1
1
1
1
1
1
1
1
1
1
1
1
1
1
1
1
1
1
1
1
1
1
1
1
1
1
1
1
1
1
1
1
1
1
1
1
1
1
1
1
1
1
1
1
1
1
1
1
1
1
1
1
1
1
1
1
1
1
1
1
1
1
1
1
1
1
1
1
1
1
1
1
1
1
1
1
1
1
1
1
1
1
1
1
1
1
1
1
1
1
1
1
1
1
1
1
1
1
1
1
1
1
1
1
1
1
1
1
1
1
1
1
1
1
1
1
1
1
1
1
1
1
1
1
1
1
1
1
1
1
1
1
1
1
1
1
1
1
1
1
1
1
1
1
1
1
1
1
1
1
1
1
1
1
1
1
1
1
1
1
1
1
1
1
1
1
1
1
1
1
1
1
1
1
1
1
1
1
1
1
1
1
1
1
1
1
1
1
1
1
1
1
1
1
1
1
1
1
1
1
1
1
1
1
1
1
1
1
1
1
1
1
1
1
1
1
1
1
1
1
1
1
1
1
1
1
1
1
1
1
1
1
1
1
1
1
1
1
1
1
1
1
1
1
1
1
1
1
1
1
1
1
1
1
1
1
1
1
1
1
1
1
1
1
1
1
1
1
1
1
1
1
1
1
1
1
1
1
1
1
1
1
1
1
1
1
1
1
1
1
1
1
1
1
1
1
1
1
1
1
1
1
1
1
1
1
1
1
1
1
1
1
1
1
1
1
1
1
1
1
1
1
1
1
1
1
1
1
1
1
1
1
1
1
1
1
1
1
1
1
1
1
1
1
1
1
1
1
1
1
1
1
1
1
1
1
1
1
1
1
1
1
1
1
1
1
1
1
1
1
1
1
1
1
1
1
1
1
1
1
1
1
1
1
1
1
1
1
1
1
1
1
1
1
1
1
1
1
1
1
1
1
1
1
1
1
1
1
1
1
1
1
1
1
1
1
1
1
1
1
1
1
1
1
1
1
1
1
1
1
1
1
1
1
1
1
1
1
1
1
1
1
1
1
1
1
1
1
1
1
1
1
1
1
1
1
1
1
1
1
1
1
1
1
1
1
1
1
1
1
1
1
1
1
1
1
1
1
1
1
1
1
1
1
1
1
1
1
1
1
1
1
1
1
1
1
1
1
1
1
1
1
1
1
1
1
1
1
1
1
1
1
1
1
1
1
1
1
1
1
1
1
1
1
1
1
1
1
1
1
1
1
1
1
1
1
1
1
1
1
1
1
1
1
1
1
1
1
1
1
1
1
1
1
1
1
1
1
1
1
1
1
1
1
1
1
1
1
1
1
1
1
1
1
1
1
1
1
1
1
1
1
1
1
1
1
1
1
1
1
1
1
1
1
1
1
1
1
1
1
1
1
1
1
1
1
1
1
1
1
1
1
1
1
1
1
1
1
1
1
1
1
1
1
1
1
1
1
1
1
1
1
1
1
1
1
1
1
1
1
1
1
1
1
1
1
1
1
1
1
1
1
1
1
1
1
1
1
1
1
1
1
1
1
1
1
1
1
1
1
1
1
1
1
1
1
1
1
1
1
1
1
1
1
1
1
1
1
1
1
1
1
1
1
1
1
1
1
1
1
1
1
1
1
1
1
1
1
1
1
1
1
1
1
1
1
1
1
1
1
1
1
1
1
1
1
1
1
1
1
1
1
1
1
1
1
1
1
1
1
1
1
1
1
1
1
1
1
1
1
1
1
1
1
1
1
1
1
1
1
1
1
1
1
1
1
1
1
1
1
1
1
1
1
1
1
1
1
1
1
1
1
1
1
1
1
1
1
1
1
1
1
1
1
1
1
1
1
1
1
1
1
1
1
1
1
1
1
1
1
1
1
1
1
1
1
1
1
1
1
1
1
1
1
1
1
1
1
1
1
1
1
1
1
1
1
1
1
1
1
1
1
1
1
1
1
1
1
1
1
1
1
1
1
1
1
1
1
1
1
1
1
1
1
1
1
1
1
1
1
1
1
1
1
1
1
1
1
1
1
1
1
1
1
1
1
1
1
1
1
1
1
1
1
1
1
1
1
1
1
1
1
1
1
1
1
1
1
1
1
1
1
1
1
1
1
1
1
1
1
1
1
1
1
1
1
1
1
1
1
1
1
1
1
1
1
1
1
1
1
1
1
1
1
1
1
1
1
1
1
1
1
1
1
1
1
1
1
1
1
1
1
1
1
1
1
1
1
1
1
1
1
1
1
1
1
1
1
1
1
1
1
1
1
1
1
1
1
1
1
1
1
1
1
1
1
1
1
1
1
1
1
1
1
1
1
1
1
1
1
1
1
1
1
1
1
1
1
1
1
1
1
1
1
1
1
1
1
1
1
1
1
1
1
1
1
1
1
1
1
1
1
1
VECTORS v double
9.7725945 1.6636888 0
9.594125 2.5011306 0
-9.9777578 -0.058093422 0
-9.9791251 -7.6937819e-05 0
-9.979127 -2.0093295e-05 0
-9.979127 8.4145187e-10 0
-9.979127 -3.0198277e-13 0
-9.979127 2.4736491e-10 0
-9.979127 2.6525844e-15 0
-9.979127 -4.6727461e-13 0
-9.979127 2.4110513e-10 0
-9.979127 4.0310487e-09 0
-9.979127 3.7296496e-07 0
-9.979127 -4.0492435e-09 0
-9.979127 9.5049165e-13 0
-9.979127 9.2730566e-13 0
-9.979127 -3.9875773e-15 0
-9.979127 -2.0536562e-17 0
-9.979127 1.5417232e-16 0
-9.979127 -1.6502392e-12 0
-9.979127 -3.626832e-09 0
-9.9791251 7.6291343e-05 0
-9.9777575 0.05814215 0
9.5941253 -2.5011295 0
9.7725946 -1.6636885 0
-2.6378715 -13.739463 0
-8.154712 1.8512791 0
9.9801812 0.063774739 0
9.9802688 6.2697231e-05 0
9.9802653 1.9287917e-05 0
9.9802653 -7.4580199e-10 0
9.9802653 1.3718458e-14 0
9.9802653 -2.0282704e-10 0
9.9802653 3.0162926e-15 0
9.9802653 -5.0035097e-13 0
9.9802653 -1.9703107e-10 0
9.9802653 -3.6660989e-09 0
9.9802653 -3.5351548e-07 0
9.9802653 3.6802988e-09 0
9.9802653 9.8891766e-13 0
9.9802653 9.9443262e-13 0
9.9802653 -3.8670501e-15 0
9.9802653 -1.9631366e-17 0
9.9802653 9.6201637e-17 0
9.9802653 -1.7252843e-12 0
9.9802653 5.6133718e-09 0
9.9802688 -6.2323852e-05 0
9.9801808 -0.063831041 0
-8.1547115 -1.851277 0
-2.6378716 13.739463 0
-0.51355095 -5.2110361 0
5.57 13.28006 0
-9.9922409 -0.15192279 0
-9.979192 -0.00015027812 0
-9.9791871 -9.2827992e-06 0
-9.9791871 3.0938119e-10 0
-9.9791871 -1.4039055e-13 0
-9.9791871 -6.1423376e-13 0
-9.9791871 4.177318e-15 0
-9.9791871 -3.0988654e-13 0
-9.9791871 -6.1859948e-13 0
-9.9791871 7.6222765e-10 0
-9.9791871 1.3512049e-07 0
-9.9791871 -7.687689e-10 0
-9.9791871 6.1840105e-13 0
-9.9791871 6.1623673e-13 0
-9.9791871 -3.7384622e-15 0
-9.9791871 -1.8064723e-17 0
-9.9791871 2.7761803e-16 0
-9.9791871 -9.9353461e-13 0
-9.9791871 -4.0123305e-09 0
-9.979192 0.00015143318 0
-9.99224 0.15200536 0
5.5700018 -13.280061 0
-0.51355338 5.2110342 0
-0.33750061 -3.8184406 0
7.8329223 -4.7466349 0
9.9692081 0.10604621 0
9.9822447 0.00011674822 0
9.9822482 8.3588755e-06 0
9.9822482 -2.0914533e-10 0
9.9822482 3.6105989e-14 0
9.9822482 -7.5320694e-13 0
9.9822482 4.0484927e-15 0
9.9822482 -3.79252e-13 0
9.9822482 -7.5911103e-13 0
9.9822482 -6.2332673e-10 0
9.9822482 -1.1754942e-07 0
9.9822482 6.2668479e-10 0
9.9822482 7.5215266e-13 0
9.9822482 7.5509556e-13 0
9.9822482 -3.6075655e-15 0
9.9822482 -1.6740046e-17 0
9.9822482 3.3643886e-16 0
9.9822482 -3.0291881e-12 0
9.9822482 3.2444958e-10 0
9.9822447 -0.00011792034 0
9.969207 -0.10612608 0
7.8329223 4.7466369 0
-0.33750052 3.8184406 0
-9.3811072 -0.65484258 0
-9.6452105 2.2064671 0
-9.9800446 -0.040751266 0
-9.980227 -4.9937318e-05 0
-9.980227 -1.9388348e-06 0
-9.980227 3.2006261e-11 0
-9.980227 -1.1416567e-13 0
-9.980227 -4.5993297e-13 0
-9.980227 3.9063466e-15 0
-9.980227 -2.3250578e-13 0
-9.980227 -4.5833285e-13 0
-9.980227 -7.9505365e-13 0
-9.980227 1.4949235e-08 0
-9.980227 5.6429569e-13 0
-9.980227 4.5849869e-13 0
-9.980227 4.617601e-13 0
-9.980227 -3.4781259e-15 0
-9.980227 -1.5852717e-17 0
-9.980227 1.3334468e-16 0
-9.980227 -6.5679306e-13 0
-9.980227 2.7693941e-09 0
-9.980227 5.0739037e-05 0
-9.9800445 0.040791441 0
-9.6452094 -2.2064701 0
-9.3811078 0.65484751 0
-9.9711687 -1.0517159 0
8.9912998 1.5221162 0
9.9840806 0.036443746 0
9.9842871 4.4173363e-05 0
9.9842891 1.6545965e-06 0
9.9842891 -6.279776e-12 0
9.9842891 -2.3865323e-14 0
9.9842891 -3.6855017e-13 0
9.9842891 3.7612947e-15 0
9.9842891 -1.8672802e-13 0
9.9842891 -3.6759398e-13 0
9.9842891 -5.5848889e-13 0
9.9842891 -1.2185342e-08 0
9.9842891 4.6858452e-13 0
9.9842891 3.6652634e-13 0
9.9842891 3.7032706e-13 0
9.9842891 -3.349399e-15 0
9.9842891 -1.4774031e-17 0
9.9842891 1.1976236e-16 0
9.9842891 -1.5257375e-12 0
9.9842891 -4.3511694e-09 0
9.9842871 -4.4906302e-05 0
9.9840804 -0.036479821 0
8.9912986 -1.522122 0
-9.9711687 1.0517159 0
-9.0685533 4.7979784 0
8.0605795 5.3755432 0
-9.9816434 -0.0077056165 0
-9.981528 -2.3425013e-06 0
-9.9815276 -1.4694712e-07 0
-9.9815276 1.1564312e-12 0
-9.9815276 -6.9765704e-14 0
-9.9815276 -2.7601471e-13 0
-9.9815276 3.6140876e-15 0
-9.9815276 -1.4035578e-13 0
-9.9815276 -2.7453082e-13 0
-9.9815276 -4.1010826e-13 0
-9.9815276 -5.4748658e-13 0
-9.9815276 4.1019328e-13 0
-9.9815276 2.7455665e-13 0
-9.9815276 2.7770359e-13 0
-9.9815276 -3.2192122e-15 0
-9.9815276 -1.3618711e-17 0
-9.9815276 1.167604e-16 0
-9.9815276 -9.5946511e-14 0
-9.9815276 1.3670747e-09 0
-9.981528 2.5423947e-06 0
-9.9816434 0.0077136792 0
8.0605804 -5.3755421 0
-9.0685534 -4.7979784 0
4.8365337 -9.9994668 0
-10.042814 -0.50750102 0
9.9853348 0.0056889069 0
9.9854446 -1.2719617e-07 0
9.9854445 1.2014652e-07 0
9.9854445 9.1353697e-13 0
9.9854445 -2.738885e-14 0
9.9854445 -1.3168838e-13 0
9.9854445 3.4688323e-15 0
9.9854445 -6.8095383e-14 0
9.9854445 -1.3026677e-13 0
9.9854445 -1.9266574e-13 0
9.9854445 -2.6272338e-13 0
9.9854445 1.9496077e-13 0
9.9854445 1.3027624e-13 0
9.9854445 1.3330508e-13 0
9.9854445 -3.0896916e-15 0
9.9854445 -1.2467922e-17 0
9.9854445 8.0369587e-17 0
9.9854445 -2.5082739e-13 0
9.9854445 -1.461358e-09 0
9.9854446 -4.4232703e-08 0
9.9853348 -0.0056957619 0
-10.042814 0.50750087 0
4.8365337 9.9994668 0
-5.8355026 6.1804656 0
-9.728129 2.4243967 0
-9.97991 -0.00036318099 0
-9.9799047 -3.2318977e-07 0
-9.9799046 -1.0794921e-10 0
-9.9799046 4.4494618e-14 0
-9.9799046 -9.3271331e-15 0
-9.9799046 -3.833776e-14 0
-9.9799046 3.3228609e-15 0
-9.9799046 -2.1323115e-14 0
-9.9799046 -3.6973078e-14 0
-9.9799046 -5.2616938e-14 0
-9.9799046 -7.6696629e-14 0
-9.9799046 5.5267289e-14 0
-9.9799046 3.6982468e-14 0
-9.9799046 3.9883431e-14 0
-9.9799046 -2.9603904e-15 0
-9.9799046 -1.1315393e-17 0
-9.9799046 1.1731462e-16 0
-9.9799046 -4.5897394e-14 0
-9.9799046 3.9490177e-11 0
-9.9799047 3.4016741e-07 0
-9.97991 0.00036375172 0
-9.7281291 -2.4243962 0
-5.8355026 -6.1804656 0
-10.00102 0.0043968797 0
9.7164156 -1.9728125 0
9.9814171 0.00026500632 0
9.981419 -8.9237755e-08 0
9.9814192 1.0477477e-10 0
9.9814192 1.3560476e-14 0
9.9814192 -5.3136601e-15 0
9.9814192 -2.2600586e-14 0
9.9814192 3.1781994e-15 0
9.9814192 -1.3359965e-14 0
9.9814192 -2.1294593e-14 0
9.9814192 -2.9223106e-14 0
9.9814192 -4.5217359e-14 0
9.9814192 3.1758275e-14 0
9.9814192 2.1303428e-14 0
9.9814192 2.4077799e-14 0
9.9814192 -2.8322836e-15 0
9.9814192 -1.0176145e-17 0
9.9814192 1.0889403e-16 0
9.9814192 -1.9543435e-14 0
9.9814192 -4.8959073e-11 0
9.981419 7.5392359e-08 0
9.9814171 -0.0002654715 0
9.7164157 1.9728121 0
-10.00102 -0.0043968797 0
-10.000012 0.0046023789 0
-10.000058 2.5453932e-05 0
-10.000063 -9.7695693e-08 0
-10.000063 1.4102777e-09 0
-10.000063 3.1863323e-13 0
-10.000063 9.7139666e-16 0
-10.000063 -3.9768147e-18 0
-10.000063 -1.3117989e-15 0
-10.000063 3.0850259e-15 0
-10.000063 -2.6556979e-15 0
-10.000063 -4.4445884e-17 0
-10.000063 2.5728368e-15 0
-10.000063 -2.6396499e-15 0
-10.000063 -1.1160914e-16 0
-10.000063 5.2848143e-17 0
-10.000063 2.7456008e-15 0
-10.000063 -2.7496193e-15 0
-10.000063 -9.5234264e-18 0
-10.000063 1.0644386e-16 0
-10.000063 1.5871648e-15 0
-10.000063 -3.2086406e-13 0
-10.000063 -1.4103009e-09 0
-10.000063 9.7695729e-08 0
-10.000058 -2.5453932e-05 0
-10.000012 -0.0046023789 0
-10 0.0045985516 0
-10 2.1252658e-05 0
-10.000001 -1.0467892e-07 0
-10.000001 -1.6905434e-10 0
-10.000001 4.3335451e-13 0
-10.000001 5.4985537e-16 0
-10.000001 -3.849531e-18 0
-10.000001 -1.3120447e-15 0
-10.000001 3.0840827e-15 0
-10.000001 -2.6546516e-15 0
-10.000001 -4.4585144e-17 0
-10.000001 2.5713297e-15 0
-10.000001 -2.6392528e-15 0
-10.000001 -1.1089629e-16 0
-10.000001 5.3262672e-17 0
-10.000001 2.7449716e-15 0
-10.000001 -2.748593e-15 0
-10.000001 -9.4899025e-18 0
-10.000001 1.0632676e-16 0
-10.000001 1.9976367e-15 0
-10.000001 -4.3519548e-13 0
-10.000001 1.6905362e-10 0
-10.000001 1.0467892e-07 0
-10 -2.1252658e-05 0
-10 -0.0045985516 0
-10 0.0045984866 0
-10 2.118585e-05 0
-10 -1.0522826e-07 0
-10 -1.6908468e-10 0
-10 4.3312739e-13 0
-10 5.4970734e-16 0
-10 -3.9164292e-18 0
-10 -1.3121122e-15 0
-10 3.0841784e-15 0
-10 -2.6541857e-15 0
-10 -4.4418307e-17 0
-10 2.571564e-15 0
-10 -2.6391297e-15 0
-10 -1.1113539e-16 0
-10 5.2680904e-17 0
-10 2.744817e-15 0
-10 -2.7486079e-15 0
-10 -9.4871264e-18 0
-10 1.0622484e-16 0
-10 1.9979096e-15 0
-10 -4.3497041e-13 0
-10 1.6908392e-10 0
-10 1.0522826e-07 0
-10 -2.118585e-05 0
-10 -0.0045984866 0
-10 0.0045984866 0
-10 2.118585e-05 0
-10 -1.0522826e-07 0
-10 -1.6908468e-10 0
-10 4.3312752e-13 0
-10 5.4972121e-16 0
-10 -3.9268375e-18 0
-10 -1.3115267e-15 0
-10 3.0841784e-15 0
-10 -2.6548475e-15 0
-10 -4.445994e-17 0
-10 2.5717123e-15 0
-10 -2.6392633e-15 0
-10 -1.1104172e-16 0
-10 5.2717333e-17 0
-10 2.744876e-15 0
-10 -2.7485949e-15 0
-10 -9.4871264e-18 0
-10 1.0620315e-16 0
-10 1.9978943e-15 0
-10 -4.3497044e-13 0
-10 1.6908391e-10 0
-10 1.0522825e-07 0
-10 -2.118585e-05 0
-10 -0.0045984866 0
-10 0.0045984866 0
-10 2.118585e-05 0
-10 -1.0522826e-07 0
-10 -1.6908468e-10 0
-10 4.3312746e-13 0
-10 5.4983741e-16 0
-10 -3.9037497e-18 0
-10 -1.3115537e-15 0
-10 3.0839097e-15 0
-10 -2.6549251e-15 0
-10 -4.4683582e-17 0
-10 2.5715997e-15 0
-10 -2.6394301e-15 0
-10 -1.1115037e-16 0
-10 5.3019581e-17 0
-10 2.7448647e-15 0
-10 -2.7486078e-15 0
-10 -9.4999951e-18 0
-10 1.0625889e-16 0
-10 1.9978479e-15 0
-10 -4.3497041e-13 0
-10 1.6908391e-10 0
-10 1.0522825e-07 0
-10 -2.118585e-05 0
-10 -0.0045984866 0
-10 0.0045984866 0
-10 2.118585e-05 0
-10 -1.0522826e-07 0
-10 -1.6908468e-10 0
-10 4.3312744e-13 0
-10 5.4982798e-16 0
-10 -3.8341755e-18 0
-10 -1.3118825e-15 0
-10 3.0840227e-15 0
-10 -2.654618e-15 0
-10 -4.4508727e-17 0
-10 2.571415e-15 0
-10 -2.6389232e-15 0
-10 -1.1111704e-16 0
-10 5.3209103e-17 0
-10 2.7448569e-15 0
-10 -2.7485057e-15 0
-10 -9.4895315e-18 0
-10 1.0622448e-16 0
-10 1.9978305e-15 0
-10 -4.3497043e-13 0
-10 1.6908391e-10 0
-10 1.0522825e-07 0
-10 -2.118585e-05 0
-10 -0.0045984866 0
-10 0.0045984866 0
-10 2.118585e-05 0
-10 -1.0522826e-07 0
-10 -1.6908468e-10 0
-10 4.3312729e-13 0
-10 5.4971428e-16 0
-10 -3.9268375e-18 0
-10 -1.3122032e-15 0
-10 3.0841784e-15 0
-10 -2.6541709e-15 0
-10 -4.4473818e-17 0
-10 2.5714729e-15 0
-10 -2.6392503e-15 0
-10 -1.1104172e-16 0
-10 5.2717333e-17 0
-10 2.744876e-15 0
-10 -2.7485949e-15 0
-10 -9.4871264e-18 0
-10 1.0620315e-16 0
-10 1.9978944e-15 0
-10 -4.3497013e-13 0
-10 1.6908391e-10 0
-10 1.0522825e-07 0
-10 -2.118585e-05 0
-10 -0.0045984866 0
-10 0.0045984866 0
-10 2.118585e-05 0
-10 -1.0522826e-07 0
-10 -1.6908468e-10 0
-10 4.3312739e-13 0
-10 5.4972642e-16 0
-10 -3.9268375e-18 0
-10 -1.3115267e-15 0
-10 3.0841784e-15 0
-10 -2.6548475e-15 0
-10 -4.4473818e-17 0
-10 2.5716984e-15 0
-10 -2.6392503e-15 0
-10 -1.1104172e-16 0
-10 5.2717333e-17 0
-10 2.744876e-15 0
-10 -2.7485949e-15 0
-10 -9.4871264e-18 0
-10 1.0620315e-16 0
-10 1.997894e-15 0
-10 -4.3497018e-13 0
-10 1.6908391e-10 0
-10 1.0522825e-07 0
-10 -2.118585e-05 0
-10 -0.0045984866 0
-10 0.0045984866 0
-10 2.118585e-05 0
-10 -1.0522826e-07 0
-10 -1.6908468e-10 0
-10 4.331274e-13 0
-10 5.4973162e-16 0
-10 -3.9268375e-18 0
-10 -1.3115267e-15 0
-10 3.0841784e-15 0
-10 -2.6548475e-15 0
-10 -4.4473818e-17 0
-10 2.5716984e-15 0
-10 -2.6394758e-15 0
-10 -1.1104172e-16 0
-10 5.2717333e-17 0
-10 2.744876e-15 0
-10 -2.7485949e-15 0
-10 -9.4871264e-18 0
-10 1.0620315e-16 0
-10 1.9978944e-15 0
-10 -4.3497018e-13 0
-10 1.6908391e-10 0
-10 1.0522825e-07 0
-10 -2.118585e-05 0
-10 -0.0045984866 0
-10 0.0045984866 0
-10 2.118585e-05 0
-10 -1.0522826e-07 0
-10 -1.6908468e-10 0
-10 4.3312722e-13 0
-10 5.4989691e-16 0
-10 -3.8470923e-18 0
-10 -1.311849e-15 0
-10 3.0841322e-15 0
-10 -2.6548219e-15 0
-10 -4.4656265e-17 0
-10 2.5715443e-15 0
-10 -2.6393333e-15 0
-10 -1.1118585e-16 0
-10 5.2979543e-17 0
-10 2.7447035e-15 0
-10 -2.7484622e-15 0
-10 -9.5024002e-18 0
-10 1.0623275e-16 0
-10 1.9975956e-15 0
-10 -4.3497022e-13 0
-10 1.6908391e-10 0
-10 1.0522825e-07 0
-10 -2.118585e-05 0
-10 -0.0045984866 0
-10 0.0045984866 0
-10 2.118585e-05 0
-10 -1.0522826e-07 0
-10 -1.6908468e-10 0
-10 4.3312736e-13 0
-10 5.4999043e-16 0
-10 -3.8888321e-18 0
-10 -1.3122372e-15 0
-10 3.0844724e-15 0
-10 -2.6548704e-15 0
-10 -4.4414941e-17 0
-10 2.5719511e-15 0
-10 -2.6394998e-15 0
-10 -1.1077408e-16 0
-10 5.2948905e-17 0
-10 2.7447194e-15 0
-10 -2.7486539e-15 0
-10 -9.4920857e-18 0
-10 1.0634195e-16 0
-10 1.9970105e-15 0
-10 -4.3497015e-13 0
-10 1.6908391e-10 0
-10 1.0522825e-07 0
-10 -2.118585e-05 0
-10 -0.0045984866 0
-10 0.0045984866 0
-10 2.118585e-05 0
-10 -1.0522825e-07 0
-10 -1.6908464e-10 0
-10 4.331265e-13 0
-10 5.4995485e-16 0
-10 -3.879725e-18 0
-10 -1.3118399e-15 0
-10 3.0841926e-15 0
-10 -2.6547449e-15 0
-10 -4.4485656e-17 0
-10 2.5717636e-15 0
-10 -2.6395337e-15 0
-10 -1.1108853e-16 0
-10 5.2982695e-17 0
-10 2.7449336e-15 0
-10 -2.7489844e-15 0
-10 -9.4935474e-18 0
-10 1.0672572e-16 0
-10 1.9972791e-15 0
-10 -4.3497039e-13 0
-10 1.6908387e-10 0
-10 1.0522825e-07 0
-10 -2.118585e-05 0
-10 -0.0045984866 0
-9.9999999 0.0045984885 0
-9.9999999 2.1185822e-05 0
-9.9999999 -1.052297e-07 0
-9.9999999 -1.6908339e-10 0
-9.9999999 4.3313267e-13 0
-9.9999999 5.4980635e-16 0
-9.9999999 -3.7619589e-18 0
-9.9999999 -1.3110933e-15 0
-9.9999999 3.0841179e-15 0
-9.9999999 -2.6544519e-15 0
-9.9999999 -4.3938101e-17 0
-9.9999999 2.5725037e-15 0
-9.9999999 -2.6378881e-15 0
-9.9999999 -1.1237064e-16 0
-9.9999999 5.2481534e-17 0
-9.9999999 2.7442287e-15 0
-9.9999999 -2.7489301e-15 0
-9.9999999 -9.4933676e-18 0
-9.9999999 1.0667213e-16 0
-9.9999999 1.9978478e-15 0
-9.9999999 -4.3497825e-13 0
-9.9999999 1.6908261e-10 0
-9.9999999 1.052297e-07 0
-9.9999999 -2.1185822e-05 0
-9.9999999 -0.0045984885 0
-10.000022 0.0045987675 0
-10.000021 2.121973e-05 0
-10.000021 -1.0527787e-07 0
-10.000021 -1.6926351e-10 0
-10.000021 4.3336592e-13 0
-10.000021 5.5061209e-16 0
-10.000021 -4.0357773e-18 0
-10.000021 -1.3131024e-15 0
-10.000021 3.0841973e-15 0
-10.000021 -2.6551769e-15 0
-10.000021 -4.5416288e-17 0
-10.000021 2.5704826e-15 0
-10.000021 -2.6417647e-15 0
-10.000021 -1.0981302e-16 0
-10.000021 5.4081573e-17 0
-10.000021 2.7459052e-15 0
-10.000021 -2.7494057e-15 0
-10.000021 -9.493981e-18 0
-10.000021 1.0701831e-16 0
-10.000021 1.9959249e-15 0
-10.000021 -4.3525362e-13 0
-10.000021 1.6926265e-10 0
-10.000021 1.0527787e-07 0
-10.000021 -2.121973e-05 0
-10.000022 -0.0045987675 0
-10.004345 0.004344794 0
-10.004599 2.2009221e-05 0
-10.004598 -1.0191732e-07 0
-10.004598 -1.7551573e-10 0
-10.004598 4.2188001e-13 0
-10.004598 5.5977371e-16 0
-10.004598 -4.4251699e-18 0
-10.004598 -1.281964e-15 0
-10.004598 3.0058263e-15 0
-10.004598 -2.5885345e-15 0
-10.004598 -4.6224423e-17 0
-10.004598 2.5027126e-15 0
-10.004598 -2.5791677e-15 0
-10.004598 -1.0426714e-16 0
-10.004598 5.5073996e-17 0
-10.004598 2.6780602e-15 0
-10.004598 -2.6801157e-15 0
-10.004598 -9.4936003e-18 0
-10.004598 1.0508694e-16 0
-10.004598 1.9216272e-15 0
-10.004598 -4.2360102e-13 0
-10.004598 1.7551426e-10 0
-10.004598 1.0191732e-07 0
-10.004599 -2.2009221e-05 0
-10.004345 -0.004344794 0
-9.7725945 1.6636887 0
-9.594125 2.5011302 0
9.9777578 -0.058096843 0
9.9791251 -7.4477566e-05 0
9.979127 2.1232828e-05 0
9.979127 -8.905991e-10 0
9.979127 -2.5533339e-13 0
9.979127 -5.4051507e-10 0
9.979127 7.9297799e-15 0
9.979127 -6.8515153e-13 0
9.979127 -5.3245348e-10 0
9.979127 -4.6491039e-09 0
9.979127 -3.8483845e-07 0
9.979127 4.6689374e-09 0
9.979127 1.338949e-12 0
9.979127 1.3735134e-12 0
9.979127 -3.987001e-15 0
9.979127 -2.0518013e-17 0
9.979127 2.2202366e-16 0
9.979127 -1.6525558e-12 0
9.979127 -4.3445134e-09 0
9.9791251 7.8468702e-05 0
9.9777575 0.058138913 0
-9.5941252 -2.5011302 0
-9.7725946 -1.6636885 0
2.6378715 -13.739463 0
8.1547119 1.851279 0
-9.9801811 0.063777944 0
-9.9802688 6.0187671e-05 0
-9.9802653 -2.061551e-05 0
-9.9802653 8.1932864e-10 0
-9.9802653 -4.2531729e-13 0
-9.9802653 5.2467681e-10 0
-9.9802653 3.2214187e-15 0
-9.9802653 -4.1075353e-13 0
-9.9802653 5.161813e-10 0
-9.9802653 4.3497463e-09 0
-9.9802653 3.6706273e-07 0
-9.9802653 -4.3662518e-09 0
-9.9802653 8.1859259e-13 0
-9.9802653 8.1585786e-13 0
-9.9802653 -3.8679378e-15 0
-9.9802653 -1.9137285e-17 0
-9.9802653 1.9198531e-16 0
-9.9802653 -1.5370956e-12 0
-9.9802653 6.2742778e-09 0
-9.9802688 -6.4487946e-05 0
-9.9801809 -0.063827848 0
8.1547117 -1.8512772 0
2.6378716 13.739463 0
0.51355105 -5.211036 0
-5.57 13.28006 0
9.9922409 -0.15192347 0
9.979192 -0.00014767708 0
9.9791871 1.0991857e-05 0
9.9791871 -3.6321326e-10 0
9.9791871 -2.2743759e-13 0
9.9791871 -1.7358997e-10 0
9.9791871 5.5611233e-15 0
9.9791871 -4.2583781e-13 0
9.9791871 -1.7279055e-10 0
9.9791871 -1.1806294e-09 0
9.9791871 -1.4731442e-07 0
9.9791871 1.1850909e-09 0
9.9791871 8.6344976e-13 0
9.9791871 8.509082e-13 0
9.9791871 -3.7376346e-15 0
9.9791871 -1.8077339e-17 0
9.9791871 2.8592273e-16 0
9.9791871 -1.0282784e-12 0
9.9791871 -4.2730959e-09 0
9.979192 0.00015316346 0
9.9922401 0.15200306 0
-5.5700018 -13.280061 0
0.51355321 5.2110344 0
0.33750062 -3.8184406 0
-7.8329223 -4.7466349 0
-9.9692081 0.10604668 0
-9.9822447 0.00011419939 0
-9.9822482 -9.9652756e-06 0
-9.9822482 2.5603397e-10 0
-9.9822482 -3.3441331e-13 0
-9.9822482 1.4119795e-10 0
-9.9822482 5.0133515e-15 0
-9.9822482 -2.686904e-13 0
-9.9822482 1.4062576e-10 0
-9.9822482 9.7800436e-10 0
-9.9822482 1.2842897e-07 0
-9.9822482 -9.791396e-10 0
-9.9822482 4.3983828e-13 0
-9.9822482 5.3596046e-13 0
-9.9822482 -3.6078811e-15 0
-9.9822482 -1.7064332e-17 0
-9.9822482 2.7114823e-16 0