# vtk DataFile Version 4.0
hesp visualization file
ASCII
DATASET UNSTRUCTURED_GRID
POINTS 32 double
0.085476337 0.52500264 4
-0.94180512 2.1636723 4
-0.94180512 3.448638 4
0.085476337 5.0873076 4
0.45066604 -1.6342744 4
1.1567684 1.7592081 4
1.1567684 3.8531022 4
0.45066604 7.2465846 4
5.4016269 -4.1289069 4
2.9884909 -0.26889365 4
2.9884909 5.8812039 4
5.4016269 9.7412171 4
8.4069397 -4.4823396 4
9.2351715 1.3200441 4
9.2351715 4.2922662 4
8.4069397 10.09465 4
13.205371 -4.4823396 4
12.377139 1.3200441 4
12.377139 4.2922662 4
13.205371 10.09465 4
16.210683 -4.1289069 4
18.623819 -0.26889365 4
18.623819 5.8812039 4
16.210683 9.7412171 4
21.161644 -1.6342744 4
20.455542 1.7592081 4
20.455542 3.8531022 4
21.161644 7.2465846 4
21.526834 0.52500264 4
22.554115 2.1636723 4
22.554115 3.448638 4
21.526834 5.0873076 4
CELLS 0 0
CELL_TYPES 0
POINT_DATA 32
SCALARS m double
LOOKUP_TABLE default
1
1
1
1
1
1
1
1
1
1
1
1
1
1
1
1
1
1
1
1
1
1
1
1
1
1
1
1
1
1
1
1
VECTORS v double
-10.580244 -1.2497414 0
-11.948953 -0.052964032 0
-11.948953 0.052964032 0
-10.580244 1.2497414 0
-12.473798 -4.5645946 0
-9.733572 -0.2230913 0
-9.733572 0.2230913 0
-12.473798 4.5645946 0
-6.241064 -8.7278023 0
-8.3057894 -3.1856979 0
-8.3057894 3.1856979 0
-6.241064 8.7278023 0
-3.0719771 -7.7756245 0
-1.4045626 -0.91669297 0
-1.4045626 0.91669297 0
-3.0719771 7.7756245 0
3.0719771 -7.7756245 0
1.4045626 -0.91669297 0
1.4045626 0.91669297 0
3.0719771 7.7756245 0
6.241064 -8.7278023 0
8.3057894 -3.1856979 0
8.3057894 3.1856979 0
6.241064 8.7278023 0
12.473798 -4.5645946 0
9.733572 -0.2230913 0
9.733572 0.2230913 0
12.473798 4.5645946 0
10.580244 -1.2497414 0
11.948953 -0.052964032 0
11.948953 0.052964032 0
10.580244 1.2497414 0
