# vtk DataFile Version 4.0
hesp visualization file
ASCII
DATASET UNSTRUCTURED_GRID
POINTS 1250 double
33.028941 1.6957683 4
30.621607 3.6395742 4
31.24835 3.3936042 4
30.36698 4.492184 4
30.370867 5.6115479 4
30.3708 6.7347715 4
30.3708 7.8572343 4
30.3708 8.9796964 4
30.3708 10.102158 4
30.3708 11.22462 4
30.3708 12.347083 4
30.3708 13.469545 4
30.3708 14.59202 4
30.3708 15.714469 4
30.3708 16.836931 4
30.3708 17.959393 4
30.3708 19.081855 4
30.3708 20.204317 4
30.3708 21.326779 4
30.3708 22.449242 4
30.370867 23.571734 4
30.36698 24.691752 4
31.248526 25.790605 4
30.621606 25.54444 4
33.028936 27.488242 4
31.132952 -2.6043631 4
32.07197 2.0052883 4
31.270445 3.0515054 4
31.033436 4.3301161 4
31.14093 5.8983584 4
30.955811 6.7347681 4
30.955811 7.8572343 4
30.955811 8.9796964 4
30.955811 10.102158 4
30.955811 11.22462 4
30.955811 12.347083 4
30.955811 13.469544 4
30.955811 14.591997 4
30.955811 15.714469 4
30.955811 16.836931 4
30.955811 17.959393 4
30.955811 19.081855 4
30.955811 20.204317 4
30.955811 21.326779 4
30.955811 22.449245 4
31.141148 23.285949 4
31.033507 24.853961 4
31.270388 26.132502 4
32.071969 27.178726 4
31.132952 31.788376 4
30.690658 0.95419263 4
31.770358 2.6673389 4
30.741429 5.5070803 4
31.624696 4.7471818 4
31.703855 5.6105885 4
31.69763 6.7347699 4
31.697631 7.8572343 4
31.697631 8.9796964 4
31.697631 10.102158 4
31.697631 11.22462 4
31.697631 12.347083 4
31.697631 13.469545 4
31.697631 14.592015 4
31.697631 15.714469 4
31.697631 16.836931 4
31.697631 17.959393 4
31.697631 19.081855 4
31.697631 20.204317 4
31.697631 21.326779 4
31.69763 22.449243 4
31.703907 23.57292 4
31.624628 24.436731 4
30.741162 23.677225 4
31.770336 26.516694 4
30.690659 28.22982 4
31.767612 -0.57532651 4
31.902796 0.19243015 4
32.549372 3.7300184 4
32.306746 4.3326928 4
32.282238 5.6125738 4
32.282239 6.7347718 4
32.282239 7.8572343 4
32.282239 8.9796964 4
32.282239 10.102158 4
32.282239 11.22462 4
32.282239 12.347083 4
32.282239 13.469545 4
32.282239 14.592003 4
32.282239 15.714469 4
32.282239 16.836931 4
32.282239 17.959393 4
32.282239 19.081855 4
32.282239 20.204317 4
32.282239 21.326779 4
32.282239 22.449241 4
32.282238 23.571697 4
32.306759 24.851369 4
32.549257 25.453725 4
31.902796 28.991583 4
31.767612 29.75934 4
34.052259 2.8104823 4
30.726671 2.7735285 4
32.587957 2.9512172 4
33.038351 4.5870257 4
33.024626 5.6120998 4
33.024634 6.7347725 4
33.024635 7.8572343 4
33.024635 8.9796964 4
33.024635 10.102158 4
33.024635 11.22462 4
33.024635 12.347083 4
33.024635 13.469545 4
33.024635 14.592009 4
33.024635 15.714469 4
33.024635 16.836931 4
33.024635 17.959393 4
33.024635 19.081855 4
33.024635 20.204317 4
33.024635 21.326779 4
33.024634 22.449241 4
33.024626 23.571709 4
33.038354 24.596969 4
32.588137 26.233137 4
30.726673 26.410482 4
34.052259 26.37353 4
31.187825 0.60202622 4
33.169821 1.4338204 4
34.040776 3.7223721 4
33.608584 4.4909507 4
33.608585 5.6123776 4
33.608585 6.7347723 4
33.608585 7.8572343 4
33.608585 8.9796964 4
33.608585 10.102158 4
33.608585 11.22462 4
33.608585 12.347083 4
33.608585 13.469545 4
33.608585 14.592006 4
33.608585 15.714469 4
33.608585 16.836931 4
33.608585 17.959393 4
33.608585 19.081855 4
33.608585 20.204317 4
33.608585 21.326779 4
33.608585 22.449241 4
33.608585 23.571701 4
33.608584 24.693042 4
34.040587 25.461341 4
33.169823 27.750191 4
31.187825 28.581987 4
32.221336 2.2998902 4
35.600917 2.9382903 4
33.820423 3.2626848 4
34.351668 4.4889721 4
34.351695 5.6122615 4
34.351696 6.7347723 4
34.351696 7.8572343 4
34.351696 8.9796964 4
34.351696 10.102158 4
34.351696 11.22462 4
34.351696 12.347083 4
34.351696 13.469545 4
34.351696 14.592007 4
34.351696 15.714469 4
34.351696 16.836931 4
34.351696 17.959393 4
34.351696 19.081855 4
34.351696 20.204317 4
34.351696 21.326779 4
34.351696 22.449241 4
34.351695 23.571705 4
34.351668 24.695058 4
33.82044 25.921449 4
35.600889 26.245753 4
32.221337 26.884125 4
36.19739 -1.1155149 4
34.217922 3.3238529 4
35.272861 3.3362519 4
34.934952 4.4899999 4
34.93495 5.6123188 4
34.93495 6.7347723 4
34.93495 7.8572343 4
34.93495 8.9796964 4
34.93495 10.102158 4
34.93495 11.22462 4
34.93495 12.347083 4
34.93495 13.469545 4
34.93495 14.592007 4
34.93495 15.714469 4
34.93495 16.836931 4
34.93495 17.959393 4
34.93495 19.081855 4
34.93495 20.204317 4
34.93495 21.326779 4
34.93495 22.449241 4
34.93495 23.571703 4
34.934952 24.694007 4
35.272749 25.847653 4
34.217913 25.86017 4
36.19739 30.299528 4
34.15328 2.3877585 4
35.340183 2.3667141 4
35.50337 3.8770896 4
35.678666 4.4897198 4
35.678667 5.6123045 4
35.678667 6.7347723 4
35.678667 7.8572343 4
35.678667 8.9796964 4
35.678667 10.102158 4
35.678667 11.22462 4
35.678667 12.347083 4
35.678667 13.469545 4
35.678667 14.592007 4
35.678667 15.714469 4
35.678667 16.836931 4
35.678667 17.959393 4
35.678667 19.081855 4
35.678667 20.204317 4
35.678667 21.326779 4
35.678667 22.449241 4
35.678667 23.571703 4
35.678666 24.694298 4
35.503498 25.306926 4
35.340193 26.817293 4
34.15328 26.796255 4
34.42424 1.1244249 4
35.931872 1.0803493 4
36.262269 3.3930527 4
36.261385 4.4898424 4
36.261386 5.6123107 4
36.261386 6.7347723 4
36.261386 7.8572343 4
36.261386 8.9796964 4
36.261386 10.102158 4
36.261386 11.22462 4
36.261386 12.347083 4
36.261386 13.469545 4
36.261386 14.592007 4
36.261386 15.714469 4
36.261386 16.836931 4
36.261386 17.959393 4
36.261386 19.081855 4
36.261386 20.204317 4
36.261386 21.326779 4
36.261386 22.449241 4
36.261386 23.571703 4
36.261385 24.69417 4
36.262271 25.790926 4
35.931872 28.103664 4
34.42424 28.059588 4
35.507739 1.0986493 4
37.331909 3.1084571 4
37.004492 3.3493005 4
37.005405 4.4898509 4
37.005407 5.6123099 4
37.005407 6.7347723 4
37.005407 7.8572343 4
37.005407 8.9796964 4
37.005407 10.102158 4
37.005407 11.22462 4
37.005407 12.347083 4
37.005407 13.469545 4
37.005407 14.592007 4
37.005407 15.714469 4
37.005407 16.836931 4
37.005407 17.959393 4
37.005407 19.081855 4
37.005407 20.204317 4
37.005407 21.326779 4
37.005407 22.449241 4
37.005407 23.571703 4
37.005405 24.694163 4
37.00449 25.834736 4
37.331909 26.075556 4
35.507739 28.085364 4
36.669497 1.124521 4
36.667483 2.2483363 4
37.587684 3.3680782 4
37.587895 4.4898453 4
37.587896 5.6123102 4
37.587896 6.7347723 4
37.587896 7.8572343 4
37.587896 8.9796964 4
37.587896 10.102158 4
37.587896 11.22462 4
37.587896 12.347083 4
37.587896 13.469545 4
37.587896 14.592007 4
37.587896 15.714469 4
37.587896 16.836931 4
37.587896 17.959393 4
37.587896 19.081855 4
37.587896 20.204317 4
37.587896 21.326779 4
37.587896 22.449241 4
37.587896 23.571703 4
37.587895 24.694168 4
37.587684 25.815933 4
36.667483 26.935677 4
36.669497 28.059492 4
37.792006 1.1245065 4
37.791994 2.244948 4
38.331003 3.3668403 4
38.331107 4.4898495 4
38.331107 5.6123102 4
38.331107 6.7347723 4
38.331107 7.8572343 4
38.331107 8.9796964 4
38.331107 10.102158 4
38.331107 11.22462 4
38.331107 12.347083 4
38.331107 13.469545 4
38.331107 14.592007 4
38.331107 15.714469 4
38.331107 16.836931 4
38.331107 17.959393 4
38.331107 19.081855 4
38.331107 20.204317 4
38.331107 21.326779 4
38.331107 22.449241 4
38.331107 23.571703 4
38.331107 24.694164 4
38.331003 25.817174 4
37.791994 26.939065 4
37.792006 28.059507 4
38.914469 1.1245059 4
38.914468 2.2449346 4
38.914451 3.3673865 4
38.91445 4.4898482 4
38.91445 5.6123102 4
38.91445 6.7347723 4
38.91445 7.8572343 4
38.91445 8.9796964 4
38.91445 10.102158 4
38.91445 11.22462 4
38.91445 12.347083 4
38.91445 13.469545 4
38.91445 14.592007 4
38.91445 15.714469 4
38.91445 16.836931 4
38.91445 17.959393 4
38.91445 19.081855 4
38.91445 20.204317 4
38.91445 21.326779 4
38.91445 22.449241 4
38.91445 23.571703 4
38.91445 24.694165 4
38.914451 25.816627 4
38.914468 26.939079 4
38.914469 28.059507 4
40.036931 1.1245059 4
40.036931 2.2449342 4
40.036931 3.3673861 4
40.036931 4.4898482 4
40.036931 5.6123102 4
40.036931 6.7347723 4
40.036931 7.8572343 4
40.036931 8.9796964 4
40.036931 10.102158 4
40.036931 11.22462 4
40.036931 12.347083 4
40.036931 13.469545 4
40.036931 14.592007 4
40.036931 15.714469 4
40.036931 16.836931 4
40.036931 17.959393 4
40.036931 19.081855 4
40.036931 20.204317 4
40.036931 21.326779 4
40.036931 22.449241 4
40.036931 23.571703 4
40.036931 24.694165 4
40.036931 25.816627 4
40.036931 26.939079 4
40.036931 28.059507 4
41.159393 1.1245059 4
41.159393 2.2449342 4
41.159393 3.3673861 4
41.159393 4.4898482 4
41.159393 5.6123102 4
41.159393 6.7347723 4
41.159393 7.8572343 4
41.159393 8.9796964 4
41.159393 10.102158 4
41.159393 11.22462 4
41.159393 12.347083 4
41.159393 13.469545 4
41.159393 14.592007 4
41.159393 15.714469 4
41.159393 16.836931 4
41.159393 17.959393 4
41.159393 19.081855 4
41.159393 20.204317 4
41.159393 21.326779 4
41.159393 22.449241 4
41.159393 23.571703 4
41.159393 24.694165 4
41.159393 25.816627 4
41.159393 26.939079 4
41.159393 28.059507 4
42.281855 1.1245059 4
42.281855 2.2449342 4
42.281855 3.3673861 4
42.281855 4.4898482 4
42.281855 5.6123102 4
42.281855 6.7347723 4
42.281855 7.8572343 4
42.281855 8.9796964 4
42.281855 10.102158 4
42.281855 11.22462 4
42.281855 12.347083 4
42.281855 13.469545 4
42.281855 14.592007 4
42.281855 15.714469 4
42.281855 16.836931 4
42.281855 17.959393 4
42.281855 19.081855 4
42.281855 20.204317 4
42.281855 21.326779 4
42.281855 22.449241 4
42.281855 23.571703 4
42.281855 24.694165 4
42.281855 25.816627 4
42.281855 26.939079 4
42.281855 28.059507 4
43.404317 1.1245059 4
43.404317 2.2449342 4
43.404317 3.3673861 4
43.404317 4.4898482 4
43.404317 5.6123102 4
43.404317 6.7347723 4
43.404317 7.8572343 4
43.404317 8.9796964 4
43.404317 10.102158 4
43.404317 11.22462 4
43.404317 12.347083 4
43.404317 13.469545 4
43.404317 14.592007 4
43.404317 15.714469 4
43.404317 16.836931 4
43.404317 17.959393 4
43.404317 19.081855 4
43.404317 20.204317 4
43.404317 21.326779 4
43.404317 22.449241 4
43.404317 23.571703 4
43.404317 24.694165 4
43.404317 25.816627 4
43.404317 26.939079 4
43.404317 28.059507 4
44.526779 1.1245059 4
44.526779 2.2449342 4
44.526779 3.3673861 4
44.526779 4.4898482 4
[...]
POINT_DATA 1250
SCALARS m double
LOOKUP_TABLE default
1
1
1
1
1
1
1
1
1
1
1
1
1
1
1
1
1
1
1
1
1
1
1
1
1
1
1
1
1
1
1
1
1
1
1
1
1
1
1
1
1
1
1
1
1
1
1
1
1
1
1
1
1
1
1
1
1
1
1
1
1
1
1
1
1
1
1
1
1
1
1
1
1
1
1
1
1
1
1
1
1
1
1
1
1
1
1
1
1
1
1
1
1
1
1
1
1
1
1
1
1
1
1
1
1
1
1
1
1
1
1
1
1
1
1
1
1
1
1
1
1
1
1
1
1
1
1
1
1
1
1
1
1
1
1
1
1
1
1
1
1
1
1
1
1
1
1
1
1
1
1
1
1
1
1
1
1
1
1
1
1
1
1
1
1
1
1
1
1
1
1
1
1
1
1
1
1
1
1
1
1
1
1
1
1
1
1
1
1
1
1
1
1
1
1
1
1
1
1
1
1
1
1
1
1
1
1
1
1
1
1
1
1
1
1
1
1
1
1
1
1
1
1
1
1
1
1
1
1
1
1
1
1
1
1
1
1
1
1
1
1
1
1
1
1
1
1
1
1
1
1
1
1
1
1
1
1
1
1
1
1
1
1
1
1
1
1
1
1
1
1
1
1
1
1
1
1
1
1
1
1
1
1
1
1
1
1
1
1
1
1
1
1
1
1
1
1
1
1
1
1
1
1
1
1
1
1
1
1
1
1
1
1
1
1
1
1
1
1
1
1
1
1
1
1
1
1
1
1
1
1
1
1
1
1
1
1
1
1
1
1
1
1
1
1
1
1
1
1
1
1
1
1
1
1
1
1
1
1
1
1
1
1
1
1
1
1
1
1
1
1
1
1
1
1
1
1
1
1
1
1
1
1
1
1
1
1
1
1
1
1
1
1
1
1
1
1
1
1
1
1
1
1
1
1
1
1
1
1
1
1
1
1
1
1
1
1
1
1
1
1
1
1
1
1
1
1
1
1
1
1
1
1
1
1
1
1
1
1
1
1
1
1
1
1
1
1
1
1
1
1
1
1
1
1
1
1
1
1
1
1
1
1
1
1
1
1
1
1
1
1
1
1
1
1
1
1
1
1
1
1
1
1
1
1
1
1
1
1
1
1
1
1
1
1
1
1
1
1
1
1
1
1
1
1
1
1
1
1
1
1
1
1
1
1
1
1
1
1
1
1
1
1
1
1
1
1
1
1
1
1
1
1
1
1
1
1
1
1
1
1
1
1
1
1
1
1
1
1
1
1
1
1
1
1
1
1
1
1
1
1
1
1
1
1
1
1
1
1
1
1
1
1
1
1
1
1
1
1
1
1
1
1
1
1
1
1
1
1
1
1
1
1
1
1
1
1
1
1
1
1
1
1
1
1
1
1
1
1
1
1
1
1
1
1
1
1
1
1
1
1
1
1
1
1
1
1
1
1
1
1
1
1
1
1
1
1
1
1
1
1
1
1
1
1
1
1
1
1
1
1
1
1
1
1
1
1
1
1
1
1
1
1
1
1
1
1
1
1
1
1
1
1
1
1
1
1
1
1
1
1
1
1
1
1
1
1
1
1
1
1
1
1
1
1
1
1
1
1
1
1
1
1
1
1
1
1
1
1
1
1
1
1
1
1
1
1
1
1
1
1
1
1
1
1
1
1
1
1
1
1
1
1
1
1
1
1
1
1
1
1
1
1
1
1
1
1
1
1
1
1
1
1
1
1
1
1
1
1
1
1
1
1
1
1
1
1
1
1
1
1
1
1
1
1
1
1
1
1
1
1
1
1
1
1
1
1
1
1
1
1
1
1
1
1
1
1
1
1
1
1
1
1
1
1
1
1
1
1
1
1
1
1
1
1
1
1
1
1
1
1
1
1
1
1
1
1
1
1
1
1
1
1
1
1
1
1
1
1
1
1
1
1
1
1
1
1
1
1
1
1
1
1
1
1
1
1
1
1
1
1
1
1
1
1
1
1
1
1
1
1
1
1
1
1
1
1
1
1
1
1
1
1
1
1
1
1
1
1
1
1
1
1
1
1
1
1
1
1
1
1
1
1
1
1
1
1
1
1
1
1
1
1
1
1
1
1
1
1
1
1
1
1
1
1
1
1
1
1
1
1
1
1
1
1
1
1
1
1
1
1
1
1
1
1
1
1
1
1
1
1
1
1
1
1
1
1
1
1
1
1
1
1
1
1
1
1
1
1
1
1
1
1
1
1
1
1
1
1
1
1
1
1
1
1
1
1
1
1
1
1
1
1
1
1
1
1
1
1
1
1
1
1
1
1
1
1
1
1
1
1
1
1
1
1
1
1
1
1
1
1
1
1
1
1
1
1
1
1
1
1
1
1
1
1
1
1
1
1
1
1
1
1
1
1
1
1
1
1
1
1
1
1
1
1
1
1
1
1
1
1
1
1
1
1
1
1
1
1
1
1
1
1
1
1
1
1
1
1
1
1
1
1
1
1
1
1
1
1
1
1
1
1
1
1
1
1
1
1
1
1
1
1
1
1
1
1
1
1
1
1
1
1
1
1
1
1
1
1
1
1
1
1
1
1
1
1
1
1
1
1
1
1
1
1
1
1
1
1
1
1
1
1
1
1
1
1
1
1
1
1
1
1
1
1
1
1
1
1
1
1
1
1
1
1
1
1
1
1
1
1
1
1
1
1
1
1
1
1
1
1
1
1
1
1
1
1
1
1
1
1
1
1
1
1
1
1
1
1
1
1
1
1
1
1
1
1
1
1
1
1
1
1
1
1
1
1
1
1
1
1
1
1
1
1
1
1
1
1
1
1
1
1
1
1
1
1
1
1
1
1
1
1
1
1
1
1
1
1
1
VECTORS v double
3.5671821 7.4568748 0
6.651682 7.4079499 0
6.4790281 5.2596798 0
9.9526031 0.031132911 0
10.023179 -0.030486123 0
9.9987653 -6.2840891e-05 0
9.9987394 -9.2650964e-07 0
9.9987392 4.1212292e-07 0
9.9987392 -8.3546842e-12 0
9.9987392 -1.2756385e-11 0
9.9987392 4.0447894e-07 0
9.9987392 4.5983185e-06 0
9.9987391 0.00041789807 0
9.9987392 -4.6588163e-06 0
9.9987392 2.124722e-10 0
9.9987392 1.1757649e-12 0
9.9987392 -3.0992526e-14 0
9.9987392 -1.1962025e-11 0
9.9987394 9.2433277e-07 0
9.9987654 6.4857569e-05 0
10.023191 0.007221378 0
9.9526068 -0.033819967 0
6.4937602 -5.2465171 0
6.6516716 -7.4079393 0
3.5665565 -7.4571116 0
-2.6309673 -13.726703 0
8.1591587 -2.6619837 0
-5.4458291 -9.8498958 0
-7.4662637 -6.0306457 0
-1.5726725 12.860848 0
-9.9986347 -0.00044226275 0
-9.9986845 -1.88416e-06 0
-9.9986845 -1.7573532e-07 0
-9.9986845 3.7819992e-12 0
-9.9986845 2.487349e-12 0
-9.9986845 -1.7172681e-07 0
-9.9986845 -2.8998861e-06 0
-9.9986845 -0.00030347095 0
-9.9986845 2.9426206e-06 0
-9.9986845 -1.3779312e-10 0
-9.9986845 1.6188326e-12 0
-9.9986845 -4.956126e-14 0
-9.9986845 -2.3015938e-11 0
-9.9986845 1.8853174e-06 0
-9.9986347 0.0004401368 0
-1.5653061 -12.85146 0
-7.4639043 6.0330623 0
-5.4587607 9.8398222 0
8.1591543 2.6619909 0
-2.6309674 13.726703 0
-9.317664 0.073859352 0
0.4690955 -3.2825922 0
-14.285981 3.1509412 0
7.5194748 7.2656448 0
10.239426 -0.053544033 0
9.9995296 -0.00019374457 0
9.9996155 -1.3274975e-06 0
9.9996157 1.5392195e-07 0
9.9996157 -1.0877234e-12 0
9.9996157 -1.2176609e-12 0
9.9996157 1.5033254e-07 0
9.9996157 2.6606289e-06 0
9.9996157 0.00028495535 0
9.9996157 -2.6970259e-06 0
9.9996157 1.0226741e-10 0
9.9996157 7.635953e-13 0
9.9996157 -4.7194157e-14 0
9.9996157 -2.0553932e-11 0
9.9996155 1.3257662e-06 0
9.9995297 0.00019503548 0
10.2415 0.036879477 0
7.5171525 -7.2685025 0
-14.295459 -3.1426474 0
0.46892292 3.282701 0
-9.3176601 -0.073864418 0
-0.34390498 -3.8285411 0
-6.9810651 -10.486433 0
8.9360032 5.0167614 0
-9.2324104 -4.3103735 0
-9.9997571 0.0079205944 0
-9.9995013 -2.1041486e-05 0
-9.9994895 -5.4312258e-07 0
-9.9994892 -2.1308828e-08 0
-9.9994892 2.3873015e-13 0
-9.9994892 -3.612621e-13 0
-9.9994892 -2.0717456e-08 0
-9.9994892 -7.4802581e-07 0
-9.9994892 -0.00011165512 0
-9.9994892 7.6098241e-07 0
-9.9994892 -2.3320234e-11 0
-9.9994892 1.0566094e-12 0
-9.9994892 -2.2110996e-14 0
-9.9994892 -6.9491789e-12 0
-9.9994895 5.4416253e-07 0
-9.9995013 2.0491838e-05 0
-9.9997616 -0.00021783115 0
-9.232017 4.311571 0
8.9342524 -5.020495 0
-6.9810694 10.486432 0
-0.34390488 3.8285411 0
5.4585497 5.7384891 0
-9.5737921 2.2488878 0
-8.6590396 -5.2537761 0
9.6351305 3.4858179 0
10.000871 -0.0072023187 0
10.001012 5.6744592e-06 0
10.001017 -1.1486512e-09 0
10.001017 1.7392277e-08 0
10.001017 -1.3953011e-15 0
10.001017 -2.9921255e-13 0
10.001017 1.6909072e-08 0
10.001017 6.4330708e-07 0
10.001017 9.9239955e-05 0
10.001017 -6.5267086e-07 0
10.001017 1.1048514e-11 0
10.001017 6.0775771e-13 0
10.001017 -7.3809093e-15 0
10.001017 -1.2408331e-12 0
10.001017 2.0889891e-10 0
10.001012 -5.2325919e-06 0
10.000874 0.00021383974 0
9.634895 -3.4865937 0
-8.6566484 5.2581141 0
-9.5737675 -2.2489213 0
5.4585471 -5.7385348 0
-1.1275357 -6.3179455 0
-2.0241912 -10.904661 0
8.6868827 4.5668285 0
-10.000932 0.032359933 0
-10.000861 0.0019549458 0
-10.000851 -3.084011e-07 0
-10.000851 4.7328275e-10 0
-10.000851 1.2439976e-12 0
-10.000851 -3.6018136e-14 0
-10.000851 -4.0299076e-13 0
-10.000851 -3.8913965e-12 0
-10.000851 -6.5081634e-08 0
-10.000851 -1.9545894e-05 0
-10.000851 6.6456041e-08 0
-10.000851 -2.7962536e-12 0
-10.000851 6.9897066e-13 0
-10.000851 -4.6416194e-15 0
-10.000851 7.4852214e-14 0
-10.000851 -2.4963352e-11 0
-10.000851 2.1150296e-07 0
-10.000861 -5.2724247e-05 0
-10.00093 -0.032988798 0
8.6843317 -4.5712078 0
-2.0235887 10.904864 0
-1.127542 6.3179487 0
-9.1063794 4.0461398 0
3.7877314 -5.4167486 0
-9.7557105 -1.2340987 0
10.001896 -0.03083183 0
10.002524 -0.001722007 0
10.002531 5.8994421e-08 0
10.002531 -3.0371773e-10 0
10.002531 -5.0648917e-13 0
10.002531 2.9223048e-15 0
10.002531 -2.6491878e-13 0
10.002531 2.5862434e-12 0
10.002531 5.3265546e-08 0
10.002531 1.6580224e-05 0
10.002531 -5.4091347e-08 0
10.002531 1.4948592e-12 0
10.002531 5.2504386e-13 0
10.002531 -4.5081507e-15 0
10.002531 -4.102957e-15 0
10.002531 6.2136194e-12 0
10.002531 7.7904878e-09 0
10.002524 6.4481705e-05 0
10.001893 0.031414854 0
-9.7553929 1.2359077 0
3.7870904 5.4174225 0
-9.1063757 -4.0461263 0
4.837054 -9.9977576 0
-7.7487453 10.598156 0
1.5458482 -3.5696827 0
-10.00186 0.0037972328 0
-10.002282 0.00024210226 0
-10.002282 -2.901816e-09 0
-10.002282 9.6139829e-11 0
-10.002282 -3.3294115e-13 0
-10.002282 4.8329228e-15 0
-10.002282 -1.7138019e-13 0
-10.002282 -1.0577128e-12 0
-10.002282 1.0002558e-11 0
-10.002282 -1.2816766e-06 0
-10.002282 -1.4671698e-12 0
-10.002282 -1.4459432e-13 0
-10.002282 3.3640942e-13 0
-10.002282 -4.379299e-15 0
-10.002282 -7.3785303e-16 0
-10.002282 -3.1628908e-12 0
-10.002282 -2.6509103e-09 0
-10.002282 1.4397928e-06 0
-10.00186 -0.0039812024 0
1.5412711 3.5678658 0
-7.7488758 -10.59794 0
4.837054 9.9977576 0
-5.8628396 6.2768977 0
4.8626921 -1.6374395 0
2.6372348 15.013987 0
10.003218 -0.0068278995 0
10.003729 -0.00021177538 0
10.003729 2.0207791e-09 0
10.003729 -4.4915374e-11 0
10.003729 -3.30605e-13 0
10.003729 4.7712528e-15 0
10.003729 -1.6881755e-13 0
10.003729 -2.6447146e-13 0
10.003729 -8.0824751e-12 0
10.003729 1.0464588e-06 0
10.003729 -8.3704185e-12 0
10.003729 4.0781666e-13 0
10.003729 3.336587e-13 0
10.003729 -4.2493281e-15 0
10.003729 5.1281855e-17 0
10.003729 -1.7878982e-13 0
10.003729 1.2082244e-09 0
10.003729 6.8669601e-06 0
10.003218 0.0069898465 0
2.6422949 -15.013883 0
4.8628172 1.6373459 0
-5.8628396 -6.2768981 0
-10.002229 0.0057620438 0
-3.9040097 -8.2832061 0
-9.9718932 0.74158129 0
-10.003484 -0.00025766733 0
-10.003374 1.1025834e-05 0
-10.003374 3.9203481e-10 0
-10.003374 7.6958618e-12 0
-10.003374 -3.040013e-13 0
-10.003374 4.6275213e-15 0
-10.003374 -1.550913e-13 0
-10.003374 -3.4368681e-13 0
-10.003374 -3.2539933e-12 0
-10.003374 1.2236314e-10 0
-10.003374 -2.0012545e-12 0
-10.003374 2.6158212e-13 0
-10.003374 3.0633323e-13 0
-10.003374 -4.1197373e-15 0
-10.003374 -6.7651716e-17 0
-10.003374 -2.1468069e-13 0
-10.003374 -1.8258733e-10 0
-10.003374 1.4871362e-06 0
-10.003484 0.00023157712 0
-9.9718303 -0.74257567 0
-3.9040074 8.2832003 0
-10.002229 -0.0057620421 0
-11.539969 -1.0743153 0
5.2114369 7.4159894 0
10.019232 -0.67570676 0
10.004237 7.9324565e-05 0
10.004264 -1.14419e-05 0
10.004265 3.2205893e-12 0
10.004265 -6.9340434e-13 0
10.004265 -1.5545551e-13 0
10.004265 4.4791136e-15 0
10.004265 -8.0654237e-14 0
10.004265 -1.536265e-13 0
10.004265 -4.7045696e-13 0
10.004265 5.1348579e-13 0
10.004265 7.5352669e-15 0
10.004265 1.5367413e-13 0
10.004265 1.5758326e-13 0
10.004265 -3.9904742e-15 0
10.004265 -1.5433192e-17 0
10.004265 -2.9180869e-14 0
10.004265 -3.9964615e-11 0
10.004264 1.2186507e-06 0
10.004237 -5.7243333e-05 0
10.019172 0.67654343 0
5.2114327 -7.4159907 0
-11.539974 1.0743196 0
-10.00257 0.0063420033 0
-10.029476 0.062287757 0
-10.042583 -0.010592422 0
-10.003947 -9.5388841e-05 0
-10.003939 4.7190576e-08 0
-10.003939 2.838942e-11 0
-10.003939 3.7709061e-13 0
-10.003939 -2.0901666e-13 0
-10.003939 4.332588e-15 0
-10.003939 -1.0732134e-13 0
-10.003939 -2.0720209e-13 0
-10.003939 -3.1297811e-13 0
-10.003939 -3.9755999e-13 0
-10.003939 3.0480234e-13 0
-10.003939 2.0725524e-13 0
-10.003939 2.1103977e-13 0
-10.003939 -3.8603101e-15 0
-10.003939 -1.3592058e-17 0
-10.003939 -2.7903048e-14 0
-10.003939 -6.2026582e-12 0
-10.003939 -4.247428e-08 0
-10.003947 9.39321e-05 0
-10.042582 0.010543362 0
-10.029476 -0.062287829 0
-10.00257 -0.0063420035 0
-10.000016 0.0060373756 0
-10.000468 0.00068779296 0
9.9992641 -0.020393638 0
10.001762 4.8115146e-05 0
10.001772 -1.7898844e-08 0
10.001772 8.7148911e-12 0
10.001772 -8.3631606e-15 0
10.001772 -2.982696e-14 0
10.001772 4.1873137e-15 0
10.001772 -1.7627559e-14 0
10.001772 -2.8098839e-14 0
10.001772 -3.8576626e-14 0
10.001772 -5.9681617e-14 0
10.001772 4.1916339e-14 0
10.001772 2.8117731e-14 0
10.001772 3.1773502e-14 0
10.001772 -3.7313286e-15 0
10.001772 -1.3275928e-17 0
10.001772 1.1459725e-15 0
10.001772 -5.9636048e-12 0
10.001772 1.3030758e-08 0
10.001762 -4.6925859e-05 0
9.999264 0.020433602 0
-10.000468 -0.00068779342 0
-10.000016 -0.0060373756 0
-10 0.0060242493 0
-10.000033 5.650001e-05 0
-10.003486 3.166762e-05 0
-10.003507 1.5291825e-07 0
-10.003506 7.9054701e-10 0
-10.003506 -1.6325294e-12 0
-10.003506 6.5975112e-16 0
-10.003506 -1.7180049e-15 0
-10.003506 4.0489944e-15 0
-10.003506 -3.4834183e-15 0
-10.003506 -5.4142539e-17 0
-10.003506 3.3822142e-15 0
-10.003506 -3.4573009e-15 0
-10.003506 -1.5195768e-16 0
-10.003506 6.5529633e-17 0
-10.003506 3.5997255e-15 0
-10.003506 -3.6084818e-15 0
-10.003506 -1.2470911e-17 0
-10.003506 -3.3430823e-16 0
-10.003506 1.6574839e-12 0
-10.003506 -7.9580629e-10 0
-10.003507 -1.5287943e-07 0
-10.003486 -3.1662954e-05 0
-10.000033 -5.6500109e-05 0
-10 -0.0060242493 0
-10 0.0060232947 0
-10.000001 1.8738464e-05 0
-10.000006 6.114845e-07 0
-10.000007 2.803157e-10 0
-10.000007 1.4233618e-12 0
-10.000007 1.3633762e-15 0
-10.000007 -7.168299e-18 0
-10.000007 -1.7151758e-15 0
-10.000007 4.0329115e-15 0
-10.000007 -3.4718532e-15 0
-10.000007 -5.8383146e-17 0
-10.000007 3.3629842e-15 0
-10.000007 -3.4515659e-15 0
-10.000007 -1.4544022e-16 0
-10.000007 6.9346565e-17 0
-10.000007 3.5894936e-15 0
-10.000007 -3.5945052e-15 0
-10.000007 -1.2422567e-17 0
-10.000007 1.3910943e-16 0
-10.000007 1.4546149e-15 0
-10.000007 -1.4426152e-12 0
-10.000007 -2.8087844e-10 0
-10.000006 -6.114831e-07 0
-10.000001 -1.8738464e-05 0
-10 -0.0060232947 0
-10 0.0060232947 0
-10 1.7901981e-05 0
-10 -2.2415047e-07 0
-10 -2.2265983e-10 0
-10 1.5438813e-12 0
-10 1.233814e-15 0
-10 -7.1878993e-18 0
-10 -1.7155375e-15 0
-10 4.03297e-15 0
-10 -3.4714057e-15 0
-10 -5.8183488e-17 0
-10 3.3626627e-15 0
-10 -3.4508939e-15 0
-10 -1.4532345e-16 0
-10 6.9529792e-17 0
-10 3.589411e-15 0
-10 -3.5942556e-15 0
-10 -1.2409546e-17 0
-10 1.389689e-16 0
-10 1.512305e-15 0
-10 -1.5451734e-12 0
-10 2.2265846e-10 0
-10 2.2415046e-07 0
-10 -1.7901981e-05 0
-10 -0.0060232947 0
-10 0.0060232947 0
-10 1.7901982e-05 0
-10 -2.2415026e-07 0
-10 -2.2238311e-10 0
-10 1.5439897e-12 0
-10 1.2336743e-15 0
-10 -7.3008975e-18 0
-10 -1.7159572e-15 0
-10 4.0331624e-15 0
-10 -3.4708563e-15 0
-10 -5.8158069e-17 0
-10 3.3626979e-15 0
-10 -3.4513447e-15 0
-10 -1.4518931e-16 0
-10 6.894499e-17 0
-10 3.5894593e-15 0
-10 -3.5943251e-15 0
-10 -1.2406242e-17 0
-10 1.3889319e-16 0
-10 1.5124075e-15 0
-10 -1.5452819e-12 0
-10 2.2238173e-10 0
-10 2.2415026e-07 0
-10 -1.7901982e-05 0
-10 -0.0060232947 0
-10 0.0060232947 0
-10 1.7901982e-05 0
-10 -2.2415026e-07 0
-10 -2.2238311e-10 0
-10 1.5439896e-12 0
-10 1.2336575e-15 0
-10 -7.3234489e-18 0
-10 -1.7150734e-15 0
-10 4.0331564e-15 0
-10 -3.4717236e-15 0
-10 -5.8157202e-17 0
-10 3.3629911e-15 0
-10 -3.451329e-15 0
-10 -1.452084e-16 0
-10 6.8938051e-17 0
-10 3.5894533e-15 0
-10 -3.5943164e-15 0
-10 -1.2406242e-17 0
-10 1.3888105e-16 0
-10 1.5124304e-15 0
-10 -1.5452819e-12 0
-10 2.2238173e-10 0
-10 2.2415026e-07 0
-10 -1.7901982e-05 0
-10 -0.0060232947 0
-10 0.0060232947 0
-10 1.7901982e-05 0
-10 -2.2415026e-07 0
-10 -2.2238311e-10 0
-10 1.5439896e-12 0
-10 1.2336569e-15 0
-10 -7.3251836e-18 0
-10 -1.7150734e-15 0
-10 4.0331564e-15 0
-10 -3.4717236e-15 0
-10 -5.8158069e-17 0
-10 3.3629902e-15 0
-10 -3.4516222e-15 0
-10 -1.452084e-16 0
-10 6.8938051e-17 0
-10 3.5894533e-15 0
-10 -3.5943164e-15 0
-10 -1.2406242e-17 0
-10 1.3888105e-16 0
-10 1.5124309e-15 0
-10 -1.5452819e-12 0
-10 2.2238173e-10 0
-10 2.2415026e-07 0
-10 -1.7901982e-05 0
-10 -0.0060232947 0
-10 0.0060232947 0
-10 1.7901982e-05 0
-10 -2.2415026e-07 0
-10 -2.2238311e-10 0
-10 1.5439892e-12 0
-10 1.2339523e-15 0
-10 -7.2197301e-18 0
-10 -1.715497e-15 0
-10 4.0330959e-15 0
-10 -3.4716912e-15 0
-10 -5.8398907e-17 0
-10 3.3627854e-15 0
-10 -3.4514403e-15 0
-10 -1.4539351e-16 0
-10 6.9283195e-17 0
-10 3.5892299e-15 0
-10 -3.5941428e-15 0
-10 -1.2426216e-17 0
-10 1.3891975e-16 0
-10 1.5120369e-15 0
-10 -1.5452819e-12 0
-10 2.2238173e-10 0
-10 2.2415026e-07 0
-10 -1.7901982e-05 0
-10 -0.0060232947 0
-10 0.0060232947 0
-10 1.7901982e-05 0
-10 -2.2415026e-07 0
-10 -2.2238311e-10 0
-10 1.5439892e-12 0
-10 1.2342699e-15 0
-10 -7.332746e-18 0
-10 -1.716615e-15 0
-10 4.0334493e-15 0
-10 -3.471939e-15 0
-10 -5.8572188e-17 0
-10 3.3626115e-15 0
-10 -3.4527969e-15 0
-10 -1.4415657e-16 0
-10 6.9809886e-17 0
-10 3.5897054e-15 0
-10 -3.5944958e-15 0
-10 -1.2412735e-17 0
-10 1.3917935e-16 0
-10 1.5107893e-15 0
-10 -1.5452825e-12 0
-10 2.2238173e-10 0
-10 2.2415026e-07 0
-10 -1.7901982e-05 0
-10 -0.0060232947 0
-10 0.0060232947 0
-10 1.7901981e-05 0
-10 -2.2415026e-07 0
-10 -2.2238289e-10 0
-10 1.5439805e-12 0
-10 1.2337158e-15 0
-10 -7.1788137e-18 0
-10 -1.71509e-15 0
-10 4.0331441e-15 0
-10 -3.4714407e-15 0
-10 -5.7894315e-17 0
-10 3.3634742e-15 0
-10 -3.4508718e-15 0
-10 -1.4589103e-16 0
-10 6.9016125e-17 0
-10 3.5891815e-15 0
-10 -3.5947689e-15 0
-10 -1.2414441e-17 0
-10 1.3950896e-16 0
-10 1.5119338e-15 0
-10 -1.5452818e-12 0
-10 2.2238153e-10 0
-10 2.2415026e-07 0
-10 -1.7901981e-05 0
-10 -0.0060232947 0
-9.9999998 0.0060232987 0
-9.9999998 1.7901877e-05 0
-9.9999998 -2.2415569e-07 0
-9.9999998 -2.2237495e-10 0
-9.9999998 1.5440101e-12 0
-9.9999998 1.2338693e-15 0
-9.9999998 -7.1728628e-18 0
-9.9999998 -1.7151119e-15 0
-9.9999998 4.0330673e-15 0
-9.9999998 -3.4713898e-15 0
-9.9999998 -5.7952364e-17 0
-9.9999998 3.3633776e-15 0
-9.9999998 -3.4507427e-15 0
-9.9999998 -1.4613298e-16 0
-9.9999998 6.9109676e-17 0
-9.9999998 3.5890886e-15 0
-9.9999998 -3.5948694e-15 0
-9.9999998 -1.2414147e-17 0
-9.9999998 1.3959039e-16 0
-9.9999998 1.5118775e-15 0
-9.9999998 -1.5453151e-12 0
-9.9999998 2.2237345e-10 0
-9.9999998 2.2415569e-07 0
-9.9999998 -1.7901877e-05 0
-9.9999998 -0.0060232987 0
-10.00002 0.0060239251 0
-10.000018 1.7976481e-05 0
-10.000018 -2.2433789e-07 0
-10.000018 -2.2298198e-10 0
-10.000018 1.545388e-12 0
-10.000018 1.2364306e-15 0
-10.000018 -7.4201568e-18 0
-10.000018 -1.7169456e-15 0
-10.000018 4.033471e-15 0
-10.000018 -3.4722061e-15 0
-10.000018 -5.914883e-17 0
-10.000018 3.3619004e-15 0
-10.000018 -3.4543263e-15 0
-10.000018 -1.4372492e-16 0
-10.000018 7.039155e-17 0
-10.000018 3.5907501e-15 0
-10.000018 -3.5954553e-15 0
-10.000018 -1.2414946e-17 0
-10.000018 1.399204e-16 0
-10.000018 1.5089347e-15 0
-10.000018 -1.5467464e-12 0
-10.000018 2.2298045e-10 0
-10.000018 2.2433789e-07 0
-10.000018 -1.7976481e-05 0
-10.00002 -0.0060239251 0
-10.005691 0.0056911455 0
-10.006024 1.9749553e-05 0
-10.006023 -2.1788281e-07 0
-10.006023 -2.4621816e-10 0
-10.006023 1.5107738e-12 0
-10.006023 1.3251364e-15 0
-10.006023 -7.8439425e-18 0
-10.006023 -1.6762436e-15 0
-10.006023 3.930866e-15 0
-10.006023 -3.3850274e-15 0
-10.006023 -6.0282256e-17 0
-10.006023 3.2731429e-15 0
-10.006023 -3.3724625e-15 0
-10.006023 -1.3665472e-16 0
-10.006023 7.1842632e-17 0
-10.006023 3.5020787e-15 0
-10.006023 -3.5048212e-15 0
-10.006023 -1.2414708e-17 0
-10.006023 1.3739436e-16 0
-10.006023 1.3722346e-15 0
-10.006023 -1.5119258e-12 0
-10.006023 2.4621558e-10 0
-10.006023 2.1788282e-07 0
-10.006024 -1.9749553e-05 0
-10.005691 -0.0056911455 0
-3.5671764 7.456877 0
-6.6516826 7.4079345 0
-6.4784252 5.2601442 0
-9.9526031 0.034214286 0
-10.02316 0.016132063 0
-9.9987654 -6.6897574e-05 0
-9.9987394 -9.2215585e-07 0
-9.9987392 -4.2929121e-07 0
-9.9987392 1.0698859e-11 0
-9.9987392 1.3586922e-11 0
-9.9987392 -4.2151357e-07 0
-9.9987392 -4.6356644e-06 0
-9.9987391 -0.00041872577 0
-9.9987392 4.6964558e-06 0
-9.9987392 -2.1143957e-10 0
-9.9987392 1.9552668e-12 0
-9.9987392 -3.103844e-14 0
-9.9987392 -1.1961804e-11 0
-9.9987394 9.2432961e-07 0
-9.9987654 6.4857518e-05 0
-10.023192 0.0072205695 0
-9.9526068 -0.031217774 0
-6.4938311 -5.2465147 0
-6.6516717 -7.4079663 0
-3.5665234 -7.4571242 0
2.6309673 -13.726703 0
-8.1591592 -2.6619832 0
5.4452434 -9.850366 0
7.4642914 -6.0328897 0
1.5569342 12.840726 0
9.9986347 -0.00043785157 0
9.9986845 -1.8867346e-06 0
9.9986845 3.9751177e-07 0
9.9986845 -9.8566124e-12 0
9.9986845 -1.2829693e-11 0
9.9986845 3.9147e-07 0
9.9986845 3.3982777e-06 0
9.9986845 0.00031544687 0
9.9986845 -3.4421441e-06 0
9.9986845 1.4258995e-10 0
9.9986845 1.1573207e-12 0
9.9986845 -4.9572546e-14 0
9.9986845 -2.2806681e-11 0
9.9986845 1.8853083e-06 0
9.9986347 0.00044013038 0
1.5652506 -12.851399 0
7.4654848 6.0312547 0
5.4588686 9.8397241 0
-8.1591532 2.6619921 0
2.6309674 13.726703 0
9.3176638 0.073859622 0
-0.46909413 -3.282595 0
14.306228 3.134667 0
-7.517523 7.2678311 0
-10.243975 -0.018762455 0
-9.9995298 -0.00019648207 0
-9.9996155 -1.3238754e-06 0
-9.9996157 -3.7561067e-07 0
-9.9996157 7.2114952e-12 0
-9.9996157 8.9955413e-12 0
-9.9996157 -3.7008169e-07 0
-9.9996157 -3.1621253e-06 0
-9.9996157 -0.0002971805 0
-9.9996157 3.1995643e-06 0
-9.9996157 -1.0568953e-10 0
-9.9996157 1.3499378e-12 0
-9.9996157 -4.7196722e-14 0
-9.9996157 -2.0790659e-11 0
-9.9996155 1.3257579e-06 0
-9.9995297 0.00019503363 0
-10.24149 0.036874691 0
-7.5187176 -7.2667549 0
14.295515 -3.1426986 0
-0.46892901 3.2826967 0
9.3176604 -0.073864006 0
0.34390499 -3.8285411 0
6.9810651 -10.486433 0
-8.9360183 5.0167354 0
9.2315489 -4.3125086 0
9.9997601 -0.0087990572 0
9.9995013 -1.9841171e-05 0