# vtk DataFile Version 4.0
hesp visualization file
ASCII
DATASET UNSTRUCTURED_GRID
POINTS 1250 double
35.906132 6.3982111 4
32.009986 -1.7463599 4
35.249043 6.115504 4
28.89356 1.1998698 4
29.884442 4.5880485 4
30.061966 8.0985163 4
30.033214 6.8820737 4
33.816338 7.8399213 4
29.05653 10.537082 4
32.57034 11.644225 4
28.136661 12.526819 4
32.998664 14.6021 4
31.588589 15.124828 4
33.602824 16.188831 4
29.93221 15.575289 4
32.220078 17.82031 4
28.484738 17.519297 4
30.53807 18.008618 4
31.536567 21.025502 4
31.027554 19.769084 4
31.324611 21.496889 4
35.043272 27.965201 4
36.100493 24.171074 4
32.753528 30.003245 4
30.576507 28.48924 4
30.890392 -11.801253 4
31.302991 2.0694706 4
32.592647 -3.4787449 4
35.033848 5.5970256 4
36.052206 3.7259187 4
28.524106 7.8313358 4
30.544772 5.0100025 4
30.450004 12.169595 4
31.528709 9.1827661 4
30.866925 12.66754 4
33.150918 12.300986 4
28.662396 12.015167 4
31.04729 15.879769 4
29.759012 16.681171 4
29.508477 14.454218 4
33.298153 17.875127 4
32.330909 17.581968 4
31.218195 19.425134 4
29.550903 19.366643 4
30.03615 21.047176 4
30.856318 24.165208 4
32.842587 23.832631 4
32.602665 32.6583 4
32.862778 28.907236 4
30.890392 40.985266 4
31.869597 -2.9888895 4
35.063845 4.5716067 4
29.621277 7.368542 4
33.101753 5.7535005 4
35.157869 4.99888 4
28.839031 10.041825 4
31.108671 12.837954 4
32.806482 10.847507 4
31.672553 8.9810366 4
31.323163 10.657661 4
28.65702 12.575866 4
32.303117 13.4224 4
32.507092 14.712745 4
31.847784 16.924978 4
32.470951 18.146207 4
31.974721 17.33367 4
30.363622 18.258216 4
30.2709 20.956049 4
35.011978 19.259582 4
31.765888 17.630718 4
34.850444 23.805634 4
35.676296 25.372094 4
33.00196 26.651412 4
32.487134 25.13325 4
31.872993 32.162646 4
31.457987 -3.0365661 4
32.906058 -6.9146288 4
32.299013 5.2860376 4
32.54276 4.1330887 4
28.063711 4.3823484 4
30.589867 10.592799 4
33.794623 6.7739881 4
31.282319 11.69887 4
31.924727 12.52171 4
33.106185 10.227888 4
31.80101 12.057186 4
28.70469 13.016302 4
28.583519 13.653134 4
30.443805 16.520259 4
30.085237 16.510497 4
33.096052 19.495472 4
35.023484 17.529898 4
31.219509 20.398627 4
32.469675 22.852619 4
30.177089 25.258381 4
33.472375 24.760002 4
36.162218 25.136827 4
30.322355 25.924243 4
32.906063 36.098644 4
31.456744 32.221708 4
32.554261 7.3070744 4
32.750322 3.5367685 4
33.853045 -0.63703517 4
37.036091 2.450856 4
30.704658 9.4204939 4
30.456831 2.6854157 4
30.3669 8.7659396 4
34.020839 12.840196 4
32.801949 11.540543 4
31.606555 14.796187 4
33.166963 15.474661 4
35.823993 16.911287 4
34.189407 16.362439 4
30.228108 17.087664 4
30.773816 17.318404 4
32.931659 17.562274 4
31.658672 19.102919 4
31.134846 21.23621 4
31.337167 23.764205 4
29.983877 18.766726 4
29.439347 18.376858 4
31.962639 20.460686 4
33.331618 29.391761 4
34.413926 23.730631 4
36.394966 22.618597 4
30.437465 -3.6364203 4
31.83323 -5.8879596 4
34.304677 1.8985857 4
29.681462 11.39829 4
31.055391 8.3787463 4
31.256889 4.6784524 4
35.861321 8.3777062 4
34.514625 8.686166 4
32.20072 7.88892 4
34.76487 8.1990553 4
32.610645 12.562448 4
34.027951 10.667737 4
34.057149 11.574354 4
34.608037 15.52828 4
35.660332 18.064939 4
32.435771 16.97025 4
31.99484 18.942979 4
31.645005 18.493537 4
30.484663 21.091307 4
30.35792 23.26822 4
33.805038 23.093585 4
30.622523 24.792956 4
34.433863 21.378585 4
31.833625 35.072083 4
30.437457 32.820442 4
30.648776 0.75021921 4
37.076176 2.0111102 4
28.857453 -0.16498258 4
34.480548 6.913456 4
29.007419 3.0122403 4
33.1019 7.3693563 4
35.673427 7.4482562 4
32.219414 9.2998338 4
33.108967 11.313985 4
33.324623 11.409228 4
33.363306 13.51028 4
33.527825 15.156691 4
35.283462 16.575386 4
33.730304 11.718612 4
33.214796 17.142923 4
34.020637 17.505743 4
32.754775 20.650788 4
35.732222 19.760518 4
33.235489 21.314253 4
31.005784 21.480321 4
29.391731 22.817641 4
34.954695 23.086857 4
28.634678 29.108506 4
36.984516 24.935423 4
31.918602 29.24356 4
39.438216 -7.8140094 4
32.731069 2.4213061 4
35.648453 1.5727929 4
32.818522 6.0091381 4
35.550194 6.1283066 4
32.419686 6.737819 4
32.541583 10.060908 4
36.424882 11.317249 4
34.692002 10.797898 4
34.723542 10.09014 4
34.524876 11.273385 4
33.311486 14.155042 4
34.744549 13.924021 4
35.032846 16.722418 4
35.692618 13.442076 4
34.597181 16.56067 4
33.68928 20.344672 4
39.414195 19.642174 4
33.456769 19.754774 4
32.180154 21.000928 4
36.716306 27.083906 4
32.952195 24.376977 4
35.526085 27.718462 4
32.277402 26.416459 4
39.438216 36.998023 4
31.225145 1.4048251 4
29.82229 1.2928583 4
35.909633 -1.1239271 4
34.043421 8.0055444 4
37.480891 5.3806352 4
35.311634 4.726826 4
33.755554 7.5483647 4
34.163254 11.82219 4
34.276165 13.311066 4
34.695196 12.823121 4
34.812209 13.361769 4
34.679119 14.888945 4
33.675825 16.916027 4
33.617177 14.438885 4
35.916472 18.672153 4
34.853638 16.1039 4
33.951288 18.353898 4
36.4518 18.432548 4
31.617675 19.821518 4
35.155425 21.748391 4
35.050645 21.0522 4
38.830921 22.98579 4
36.82409 30.726643 4
30.206299 27.528954 4
30.963862 26.808886 4
32.767381 0.33403794 4
33.296319 -4.4533558 4
34.345193 1.5557744 4
35.537539 4.296282 4
35.424512 6.9172419 4
35.527639 9.6647959 4
36.018604 9.1461156 4
34.332212 10.636401 4
38.001416 10.784531 4
36.089233 10.80963 4
37.005562 11.964333 4
36.763683 11.684023 4
32.899218 13.887391 4
36.196258 14.695483 4
37.572765 16.173591 4
37.299423 17.47112 4
34.675212 17.178579 4
33.434309 18.096298 4
36.626258 20.647075 4
37.21441 22.288597 4
34.965187 22.720754 4
35.016034 23.501497 4
34.227624 27.239424 4
33.29632 33.637365 4
32.477309 28.576237 4
32.446919 -0.69439922 4
35.955937 3.5023935 4
38.163786 5.7218574 4
32.781282 1.0576078 4
40.924333 5.3690705 4
36.996996 6.3358 4
36.26587 7.0793788 4
35.735717 11.159921 4
37.195596 8.4994526 4
36.664213 11.060542 4
35.83059 12.371066 4
36.22761 15.320809 4
39.008003 12.825415 4
35.874636 17.293952 4
37.076595 17.056301 4
36.176215 19.357585 4
36.130525 19.716053 4
34.527325 19.605433 4
35.126902 20.582654 4
36.733426 21.298323 4
37.179602 26.309234 4
33.047805 28.690455 4
33.952256 24.608963 4
35.912336 26.501137 4
31.356262 30.239318 4
30.816796 -1.880955 4
33.21136 -1.0429894 4
39.093173 8.6419128 4
35.390928 3.1453569 4
33.843967 6.4793179 4
36.781056 5.8948759 4
35.754681 8.0437246 4
34.555758 8.9778288 4
35.689509 10.003082 4
37.090926 10.005286 4
36.795669 12.397726 4
37.491085 11.157248 4
35.88301 14.483879 4
37.581207 15.251606 4
37.602657 17.645934 4
36.111574 17.583728 4
35.480546 18.986655 4
37.728329 19.371827 4
35.539984 20.62088 4
41.583715 23.114037 4
34.041197 19.79965 4
35.318783 26.01939 4
39.357416 18.53528 4
33.276494 30.257078 4
30.814057 31.082175 4
31.248341 -0.055081584 4
32.93411 -1.1223501 4
39.768456 2.9446632 4
38.667758 6.9361218 4
37.154861 5.4042856 4
39.141707 7.974059 4
38.645029 10.896587 4
36.026681 9.5119118 4
37.685281 9.9145712 4
39.081545 11.922803 4
36.157723 13.253772 4
35.975793 12.73522 4
34.941392 15.138161 4
35.713896 15.348756 4
41.198584 14.940254 4
36.913681 18.894512 4
36.480597 19.152228 4
36.658097 19.640492 4
37.676271 19.705541 4
39.538724 23.205046 4
37.361784 22.960118 4
37.90494 24.432595 4
39.595443 26.188726 4
32.974241 30.411108 4
31.083696 27.872309 4
31.566256 -1.1851514 4
35.498416 2.0244935 4
35.124963 0.17649375 4
35.888558 4.8986833 4
38.347712 3.5699656 4
36.923169 8.3274233 4
37.900597 8.6647703 4
37.512474 7.9778332 4
37.789963 9.6196247 4
38.081066 11.175563 4
39.805866 11.353149 4
38.086902 12.668137 4
39.52328 14.266442 4
37.547119 16.877985 4
37.971576 16.637412 4
37.725044 17.958508 4
38.108744 18.816642 4
38.2318 20.247055 4
35.704559 20.131063 4
38.204308 20.638242 4
38.192234 24.684679 4
35.442625 26.532783 4
35.168733 28.896879 4
36.613769 27.681452 4
32.604818 30.271452 4
36.149771 -1.6599605 4
33.872616 0.66239245 4
35.968426 2.6540844 4
37.649323 5.133963 4
38.720373 3.0886195 4
37.711895 9.1472835 4
37.202719 7.462876 4
39.956904 9.2653835 4
39.550377 11.264409 4
38.852047 11.237187 4
37.916734 12.376397 4
39.518902 14.997686 4
41.55825 14.547712 4
40.662592 14.233958 4
38.875447 17.102003 4
38.849715 17.960315 4
39.351175 18.033852 4
38.865065 19.990741 4
37.046654 21.364191 4
38.844958 20.962261 4
38.323661 23.958003 4
35.75226 24.433358 4
35.204463 26.968523 4
33.889604 28.585913 4
36.16575 30.353005 4
37.221982 -1.3058433 4
37.50812 3.828352 4
38.257434 6.5019926 4
37.648576 1.5764618 4
38.344809 8.1901864 4
37.313342 6.0229964 4
39.169007 8.3399277 4
39.373031 8.7412655 4
40.564958 9.7768718 4
40.278713 11.064686 4
39.180293 12.229162 4
38.807575 12.12266 4
37.310417 14.20777 4
38.194913 15.932276 4
40.045142 16.255389 4
39.970404 17.961722 4
40.490652 19.80142 4
40.13833 20.620777 4
39.372266 21.990663 4
37.987811 21.869544 4
38.25207 24.263991 4
37.861744 24.966791 4
39.605722 24.790359 4
36.646178 25.263878 4
37.144463 30.654883 4
36.257422 0.28454393 4
37.693028 4.0407938 4
40.840963 1.9735098 4
43.149938 6.5261619 4
38.491273 3.7785501 4
39.273127 7.1426991 4
40.369018 7.8025554 4
40.268643 9.4430239 4
40.173877 10.092155 4
41.092609 11.231906 4
40.215075 12.821718 4
39.259394 13.638659 4
38.344332 14.837427 4
40.606117 17.854353 4
41.016112 17.001237 4
41.092476 17.955228 4
40.173097 19.091066 4
40.615001 20.011141 4
40.390364 20.744928 4
37.320641 21.553004 4
40.072159 20.901529 4
43.059033 24.324659 4
41.641562 28.081859 4
37.827027 25.9001 4
36.090098 29.055514 4
37.16553 0.53246682 4
36.043992 1.0261673 4
37.701765 2.6020425 4
37.601596 4.5367345 4
38.526183 7.4261315 4
40.61707 7.1000302 4
40.943377 7.1733292 4
41.891451 8.2389923 4
41.29662 10.120741 4
41.456241 11.220872 4
42.126789 11.713279 4
40.525698 12.998407 4
41.404835 13.514749 4
40.456299 16.260998 4
41.298518 16.774777 4
41.456544 17.961626 4
41.296625 19.063018 4
41.338127 19.984323 4
40.540884 21.595206 4
39.455217 22.368648 4
40.242474 21.931809 4
38.149899 25.629434 4
37.62572 27.106732 4
36.551424 28.279768 4
36.69163 28.018146 4
37.650254 1.0732101 4
39.109091 -1.6347314 4
37.8229 3.3981281 4
[...]
POINT_DATA 1250
SCALARS m double
LOOKUP_TABLE default
1
1
1
1
1
1
1
1
1
1
1
1
1
1
1
1
1
1
1
1
1
1
1
1
1
1
1
1
1
1
1
1
1
1
1
1
1
1
1
1
1
1
1
1
1
1
1
1
1
1
1
1
1
1
1
1
1
1
1
1
1
1
1
1
1
1
1
1
1
1
1
1
1
1
1
1
1
1
1
1
1
1
1
1
1
1
1
1
1
1
1
1
1
1
1
1
1
1
1
1
1
1
1
1
1
1
1
1
1
1
1
1
1
1
1
1
1
1
1
1
1
1
1
1
1
1
1
1
1
1
1
1
1
1
1
1
1
1
1
1
1
1
1
1
1
1
1
1
1
1
1
1
1
1
1
1
1
1
1
1
1
1
1
1
1
1
1
1
1
1
1
1
1
1
1
1
1
1
1
1
1
1
1
1
1
1
1
1
1
1
1
1
1
1
1
1
1
1
1
1
1
1
1
1
1
1
1
1
1
1
1
1
1
1
1
1
1
1
1
1
1
1
1
1
1
1
1
1
1
1
1
1
1
1
1
1
1
1
1
1
1
1
1
1
1
1
1
1
1
1
1
1
1
1
1
1
1
1
1
1
1
1
1
1
1
1
1
1
1
1
1
1
1
1
1
1
1
1
1
1
1
1
1
1
1
1
1
1
1
1
1
1
1
1
1
1
1
1
1
1
1
1
1
1
1
1
1
1
1
1
1
1
1
1
1
1
1
1
1
1
1
1
1
1
1
1
1
1
1
1
1
1
1
1
1
1
1
1
1
1
1
1
1
1
1
1
1
1
1
1
1
1
1
1
1
1
1
1
1
1
1
1
1
1
1
1
1
1
1
1
1
1
1
1
1
1
1
1
1
1
1
1
1
1
1
1
1
1
1
1
1
1
1
1
1
1
1
1
1
1
1
1
1
1
1
1
1
1
1
1
1
1
1
1
1
1
1
1
1
1
1
1
1
1
1
1
1
1
1
1
1
1
1
1
1
1
1
1
1
1
1
1
1
1
1
1
1
1
1
1
1
1
1
1
1
1
1
1
1
1
1
1
1
1
1
1
1
1
1
1
1
1
1
1
1
1
1
1
1
1
1
1
1
1
1
1
1
1
1
1
1
1
1
1
1
1
1
1
1
1
1
1
1
1
1
1
1
1
1
1
1
1
1
1
1
1
1
1
1
1
1
1
1
1
1
1
1
1
1
1
1
1
1
1
1
1
1
1
1
1
1
1
1
1
1
1
1
1
1
1
1
1
1
1
1
1
1
1
1
1
1
1
1
1
1
1
1
1
1
1
1
1
1
1
1
1
1
1
1
1
1
1
1
1
1
1
1
1
1
1
1
1
1
1
1
1
1
1
1
1
1
1
1
1
1
1
1
1
1
1
1
1
1
1
1
1
1
1
1
1
1
1
1
1
1
1
1
1
1
1
1
1
1
1
1
1
1
1
1
1
1
1
1
1
1
1
1
1
1
1
1
1
1
1
1
1
1
1
1
1
1
1
1
1
1
1
1
1
1
1
1
1
1
1
1
1
1
1
1
1
1
1
1
1
1
1
1
1
1
1
1
1
1
1
1
1
1
1
1
1
1
1
1
1
1
1
1
1
1
1
1
1
1
1
1
1
1
1
1
1
1
1
1
1
1
1
1
1
1
1
1
1
1
1
1
1
1
1
1
1
1
1
1
1
1
1
1
1
1
1
1
1
1
1
1
1
1
1
1
1
1
1
1
1
1
1
1
1
1
1
1
1
1
1
1
1
1
1
1
1
1
1
1
1
1
1
1
1
1
1
1
1
1
1
1
1
1
1
1
1
1
1
1
1
1
1
1
1
1
1
1
1
1
1
1
1
1
1
1
1
1
1
1
1
1
1
1
1
1
1
1
1
1
1
1
1
1
1
1
1
1
1
1
1
1
1
1
1
1
1
1
1
1
1
1
1
1
1
1
1
1
1
1
1
1
1
1
1
1
1
1
1
1
1
1
1
1
1
1
1
1
1
1
1
1
1
1
1
1
1
1
1
1
1
1
1
1
1
1
1
1
1
1
1
1
1
1
1
1
1
1
1
1
1
1
1
1
1
1
1
1
1
1
1
1
1
1
1
1
1
1
1
1
1
1
1
1
1
1
1
1
1
1
1
1
1
1
1
1
1
1
1
1
1
1
1
1
1
1
1
1
1
1
1
1
1
1
1
1
1
1
1
1
1
1
1
1
1
1
1
1
1
1
1
1
1
1
1
1
1
1
1
1
1
1
1
1
1
1
1
1
1
1
1
1
1
1
1
1
1
1
1
1
1
1
1
1
1
1
1
1
1
1
1
1
1
1
1
1
1
1
1
1
1
1
1
1
1
1
1
1
1
1
1
1
1
1
1
1
1
1
1
1
1
1
1
1
1
1
1
1
1
1
1
1
1
1
1
1
1
1
1
1
1
1
1
1
1
1
1
1
1
1
1
1
1
1
1
1
1
1
1
1
1
1
1
1
1
1
1
1
1
1
1
1
1
1
1
1
1
1
1
1
1
1
1
1
1
1
1
1
1
1
1
1
1
1
1
1
1
1
1
1
1
1
1
1
1
1
1
1
1
1
1
1
1
1
1
1
1
1
1
1
1
1
1
1
1
1
1
1
1
1
1
1
1
1
1
1
1
1
1
1
1
1
1
1
1
1
1
1
1
1
1
1
1
1
1
1
1
1
1
1
1
1
1
1
1
1
1
1
1
1
1
1
1
1
1
1
1
1
1
1
1
1
1
1
1
1
1
1
1
1
1
1
1
1
1
1
1
1
1
1
1
1
1
1
1
1
1
1
1
1
1
1
1
1
1
1
1
VECTORS v double
7.8520034 -4.2622183 0
4.543836 -10.050967 0
4.3547463 2.5911087 0
-7.6434009 -7.0341356 0
3.5514645 -0.6035385 0
-2.6121026 1.8413993 0
-6.1259399 -0.9433262 0
6.7361113 -5.0346873 0
-0.98243571 1.8889357 0
8.4852705 8.4132441 0
3.5051375 6.1668547 0
2.4598761 3.7706551 0
1.0536188 -1.8380803 0
11.404475 10.485779 0
-3.1190019 -5.8015808 0
4.1144296 -2.7919428 0
-10.360244 7.0733675 0
6.8519602 -5.8179869 0
0.78375802 5.1165165 0
-4.4665782 4.9866423 0
-6.7429329 -4.664763 0
7.7651743 8.3646254 0
-4.8648039 9.5302426 0
7.156962 8.0616368 0
-10.810018 4.7362045 0
2.63098 -13.726701 0
-8.3812484 0.31340249 0
5.369141 -9.5868209 0
5.5927205 -0.49771794 0
4.1611123 -6.767381 0
1.204903 1.9283221 0
0.46664077 -10.399133 0
7.2865104 14.920187 0
2.452505 -3.2221736 0
-17.624632 2.3242551 0
2.4553459 5.9801746 0
-3.9435007 -4.5047333 0
-6.1627659 16.98522 0
4.2111177 7.1378388 0
-6.8895603 -13.861367 0
0.67899357 -9.9351511 0
-4.4330185 0.092722272 0
4.9153022 2.3745229 0
-1.8655014 -2.019187 0
-1.7295467 -1.7924817 0
-4.6698031 -3.5473194 0
8.0769847 -1.9654765 0
5.3904455 9.5822569 0
-3.6851322 9.7109171 0
2.6309801 13.726701 0
-0.025947149 -9.5731869 0
-0.2950336 -0.69969962 0
4.2945801 5.4194723 0
2.5783986 0.73550399 0
8.1463896 8.9029025 0
6.6745302 5.0805221 0
-3.7006192 9.5896361 0
2.4585073 -2.6807842 0
-7.623785 -6.7073978 0
-8.0759671 -2.9510219 0
6.3287975 -8.445026 0
-10.617464 -1.4766537 0
-11.348371 -8.032589 0
-15.313995 -4.8551346 0
7.5610394 -1.2065034 0
3.3087286 4.0259849 0
-1.8686143 4.4474669 0
2.3914068 -9.0411741 0
-13.423131 -3.4222867 0
-3.6345674 11.362069 0
10.007389 0.37004449 0
-2.3907295 7.6209763 0
9.19642 11.623753 0
-10.540473 -2.2759568 0
-0.0017119371 9.5353982 0
-0.23454341 -3.5107002 0
6.8350789 -10.617922 0
5.474417 7.8037404 0
-10.390559 2.3245939 0
-1.9768367 -9.1435064 0
-8.8693473 0.68494871 0
-2.8894142 -2.9396584 0
9.8690728 10.861156 0
-10.318166 -8.0601499 0
6.9778317 -1.8214315 0
-2.195388 10.390515 0
-8.2101089 0.088421632 0
4.2194148 -13.831606 0
4.9572864 2.1498545 0
3.4675478 -5.0087887 0
2.3031311 11.645963 0
3.8856894 -4.7602633 0
-2.2008691 3.0312074 0
0.7405856 9.9953536 0
-5.6597889 1.1602989 0
7.312078 2.0786236 0
1.6626163 -8.4046457 0
-3.1958292 15.34083 0
6.8350853 10.617926 0
-0.25946118 3.5223738 0
6.2442338 9.9304847 0
3.8975363 -2.5279507 0
9.9880502 -6.0478402 0
0.89480231 -9.3722691 0
-6.1166406 10.32573 0
-5.7022825 -10.534234 0
-10.902078 12.513891 0
12.795535 7.3585725 0
3.9019567 7.6786601 0
8.1300389 -3.6865264 0
7.7718485 3.6039857 0
12.295459 10.974939 0
-11.696555 -4.0257472 0
-7.4764951 -9.628681 0
-11.061207 -7.7795616 0
5.3729616 5.3455059 0
-11.011292 1.4177117 0
-4.3620782 4.5478771 0
2.0411898 3.4151873 0
-2.5220937 -10.339431 0
-9.129488 -14.437469 0
-8.7538317 -6.9569947 0
7.982246 4.2659831 0
11.600995 -4.4530639 0
5.7234264 -6.5774588 0
-1.1128362 -6.3272775 0
-1.9960293 -10.927602 0
-7.8798334 -10.431526 0
-3.7172185 7.6584491 0
0.77705151 3.5251331 0
-0.51113737 -9.1985617 0
-1.4647925 -4.4770027 0
10.199254 -4.2624761 0
-2.2770492 -12.584365 0
3.0534507 -0.35221138 0
-12.425278 -0.99785074 0
-5.3733676 6.0560462 0
0.11071212 -8.4071829 0
1.178925 9.3229343 0
1.9504937 3.8869202 0
5.018744 -1.5621341 0
3.5410667 -0.10008149 0
-10.060844 -1.7940946 0
-0.91595122 -0.75491099 0
-3.7043334 15.555337 0
3.1150825 5.7130942 0
1.2246515 5.2206229 0
-2.5270031 1.0763867 0
-1.9954409 10.927771 0
-1.1128601 6.3273088 0
9.8696649 -3.0442654 0
-5.8650562 -8.5110636 0
-6.4070544 -6.8774662 0
-13.311786 -0.57085299 0
-7.4051021 -8.5192589 0
-5.0338185 7.1155876 0
5.3880494 11.445485 0
-2.8776389 -9.0098795 0
-8.8496153 -0.11137271 0
8.5996329 -0.28093451 0
-6.9703525 2.5232359 0
-1.5357081 22.619939 0
9.8844209 8.9114485 0
8.6100678 3.2387113 0
3.5902044 -2.9511401 0
11.121052 -1.2796232 0
-11.086857 -1.1722131 0
10.152257 15.409213 0
-1.7505422 9.2386929 0
-4.6859721 0.68294855 0
2.9815861 -1.5627572 0
1.1423215 6.5665076 0
-6.8988243 6.1541308 0
1.7039758 -3.1957153 0
6.6448483 10.837092 0
4.8370531 -9.9977527 0
-2.5818279 0.2342768 0
-7.2649605 3.4837341 0
-7.5815636 -7.6766869 0
-4.6780032 -0.08440772 0
-4.2071576 -5.9860867 0
-10.105134 -0.63118277 0
1.2227329 10.062882 0
-0.6883731 0.95978952 0
10.558322 -4.5016774 0
-2.241051 0.51297575 0
-1.7878636 6.0824818 0
-9.0361793 5.4407968 0
2.9323069 4.7101444 0
5.4918688 -19.855456 0
3.5319907 -0.78054655 0
2.0402407 0.93919775 0
11.370923 1.9535517 0
-13.010393 -9.680395 0
-9.0478489 -7.0408771 0
5.979432 15.934129 0
-0.84459008 7.9041338 0
-8.5467477 -2.3846071 0
-5.1107939 -2.0730351 0
4.8370532 9.9977527 0
-8.5315917 0.33057037 0
-9.9684786 -1.7472643 0
-5.5784592 -7.3673288 0
-16.28262 -0.66045697 0
-0.59077082 3.185406 0
-6.330894 -9.2098583 0
-1.7761699 -11.955365 0
-10.524461 5.0588689 0
-5.5686678 -0.22266725 0
-1.3604704 1.0319485 0
16.575497 5.7452991 0
-3.9858309 5.64906 0
6.1539106 8.8345205 0
-2.599067 8.1210683 0
3.4411728 11.248329 0
7.5020552 -9.1147291 0
-11.438204 -0.32317757 0
5.7140053 -1.3981908 0
18.330294 -11.939958 0
1.3630639 0.06439862 0
8.8403043 -3.4910646 0
8.2051467 -4.3792644 0
-1.4133757 12.528008 0
3.7630731 -7.9006583 0
-4.3227595 2.9127894 0
3.2773685 -3.5713227 0
-3.9333849 -8.2575577 0
-8.7607693 -4.5681662 0
8.5956275 -5.6539001 0
-4.1692497 1.8663694 0
-1.3556021 -8.4352356 0
1.2012713 16.505023 0
-14.365813 -3.8573544 0
7.0202035 3.9231028 0
7.8831338 -4.5982282 0
-1.8055805 2.4014285 0
6.8378737 -0.74016672 0
-4.4439241 4.8660197 0
9.2274966 -3.4809846 0
2.276598 -8.482635 0
-7.5561686 4.5766883 0
-2.9057842 -3.6578065 0
-0.32794299 5.9858342 0
0.010949342 4.8017969 0
-2.8711964 -4.7784178 0
-3.0153129 -5.9100069 0
-4.780473 -5.1240549 0
-9.4026778 2.683498 0
-3.9333832 8.25755 0
1.1536125 1.9785496 0
11.422771 -1.869841 0
1.1204674 2.6074662 0
3.9826177 -4.3020036 0
-7.3244477 -7.2847429 0
2.5148209 -9.4443652 0
7.7373406 0.071545865 0
1.1817684 -4.6262853 0
-3.7184033 -12.725074 0
-5.238054 -15.796076 0
-6.0387886 3.763108 0
-4.5242687 0.94930031 0
-10.120725 1.4427527 0
5.8207757 -9.3818466 0
-4.0042936 4.8761641 0
3.0364626 -5.806402 0
4.7292501 11.064035 0
-3.9024634 11.519532 0
-8.3843639 1.760579 0
-3.059468 0.85053619 0
1.3962785 -2.5195979 0
-0.55477523 7.2016345 0
-5.5736856 7.2253315 0
-6.6125695 0.85825797 0
0.64625043 -1.7709418 0
-11.453033 4.6626483 0
-7.9355859 -6.9981321 0
-8.9153023 -5.0925032 0
-4.7179605 -2.786263 0
5.5302028 -3.3097847 0
-0.66328439 -19.751593 0
-13.047096 -8.0491724 0
-6.0389194 -4.1234433 0
-9.9125701 0.47883851 0
0.0080943984 8.1854153 0
-2.4539926 -9.3783042 0
15.367409 11.202701 0
-10.988117 -5.1709684 0
-11.22889 -0.87350573 0
9.36614 -1.7845429 0
4.9483451 4.4279141 0
-11.429095 1.4717815 0
-7.0797338 -7.8366076 0
-4.991402 3.6615997 0
-8.4065935 -4.2911882 0
10.019373 6.1769254 0
-11.565383 -7.4997874 0
6.128064 3.1797699 0
5.4521183 -18.232161 0
-6.7571395 4.7564466 0
-7.9833806 7.1882394 0
-9.0177232 -9.0485028 0
-7.1340593 -8.6853274 0
4.3002374 0.66359538 0
-1.2259749 1.733189 0
3.4928634 -2.1524864 0
-0.31228217 -8.419143 0
-2.1633446 15.226049 0
-5.5884006 6.8234801 0
1.8903833 6.5229402 0
3.3427831 -6.6603422 0
-14.169637 3.3229949 0
-8.6533123 -3.6506146 0
-7.9139129 2.271876 0
-9.7646383 -1.3005693 0
17.641393 -11.476691 0
-3.3896975 4.0084235 0
-14.842269 6.4541645 0
-8.9250534 -6.9910356 0
-10.559721 -1.3584581 0
9.7130296 2.9388369 0
-4.7870175 5.3807723 0
1.4816297 3.88027 0
3.0768853 1.88883 0
-9.0074518 9.642171 0
-10.119159 -1.2142384 0
-11.166211 -7.4198212 0
-9.6341576 -0.37240911 0
-4.0502026 -9.1698739 0
-5.5814853 3.2303936 0
-1.5346892 -6.0088143 0
-3.3856995 12.64129 0
-8.5312202 9.7141441 0
-1.8958259 -11.649723 0
-8.5905266 -4.3718779 0
6.1039402 -2.7281946 0
-8.1048481 2.3571973 0
-1.8113826 -1.2341537 0
3.3844126 6.4895943 0
-9.0071984 1.7779242 0
4.7067466 -7.3002298 0
-10.061335 -0.08554832 0
2.3132961 -11.707137 0
8.7014734 -12.074786 0
-11.363142 -16.054055 0
0.76101761 6.8752563 0
2.6322844 3.9868153 0
-3.0664974 9.7042026 0
-3.9732804 8.639904 0
4.6591468 7.9036203 0
11.589848 5.3023738 0
-3.1121812 -11.685421 0
-8.864889 -3.3749436 0
-0.45389805 1.2752529 0
7.752257 -0.62963605 0
-10.432516 -5.9655538 0
-10.271126 12.539112 0
-7.7965135 -4.627582 0
-2.5478832 -4.5020515 0
-3.854824 10.453557 0
-9.9257857 0.14863575 0
-10.220034 -0.26730536 0
-8.1887244 7.7075723 0
8.0582065 -5.0428446 0
0.85428652 -7.6897359 0
-9.7303823 2.4679745 0
-9.9190958 0.047594291 0
-5.1001965 -9.7058946 0
-9.7474182 -2.1804509 0
-9.6973988 0.29988028 0
-1.9338658 2.869703 0
-4.1145417 0.47657393 0
-3.319794 -5.5591796 0
-9.8318839 0.74203031 0
-8.840112 3.5502687 0
-3.9928235 6.4330331 0
-1.6597089 -7.0150587 0
-0.019687909 4.9224775 0
3.1858676 8.627845 0
-7.6596145 -9.4652976 0
2.7232114 -3.7869481 0
-0.65434326 -3.5017262 0
-5.0291085 12.216939 0
2.4456896 5.6702263 0
9.9154706 5.9009274 0
6.1881514 -8.2222238 0
2.5321038 7.8627361 0
-11.758285 -8.3618874 0
-9.6700951 -1.4123868 0
-9.6329183 1.1937968 0
-5.2627261 -7.8709742 0
-9.9890568 0.032850203 0
-0.045816747 -1.2900716 0
-7.2773516 7.0243546 0
-7.1027069 5.4297359 0
0.48932006 -7.6829722 0
-0.90233511 -11.095124 0
-7.7442428 4.6269332 0
2.3563703 4.0562164 0
-2.4341414 -5.785749 0
-2.0728775 7.3689844 0
-3.8798665 -11.790899 0
-6.2698233 -0.63179995 0
-11.285679 -3.0263494 0
-0.36498779 6.6476405 0
-8.7544071 -5.1317234 0
-9.8445757 2.0835545 0
-6.9431235 2.3739419 0
-9.0987544 1.6420419 0
-9.9817607 -0.21325035 0
-10.031493 0.47421656 0
-13.565612 0.56008176 0
-10.008161 0.92934692 0
-9.9727685 0.85346191 0
0.12700015 15.770528 0
2.5130198 2.1609752 0
-10.048055 -0.27940906 0
-10.023173 0.11998775 0
6.7162533 2.5464285 0
1.4324294 -3.2060854 0
-14.771243 -4.1452337 0
-2.7680823 -8.2039704 0
4.8950761 -2.3348804 0
-1.9435578 9.4379974 0
-3.2790566 1.4584739 0
-8.5886784 13.474766 0
-6.3195622 -4.755294 0
-12.062888 0.47237652 0
2.4411003 2.4995699 0
-9.9606852 8.4500115 0
-8.6558406 9.3469403 0
-8.5968602 3.2793378 0
1.0681127 -7.3973227 0
1.2485388 -11.488097 0
-9.9957607 0.29784024 0
10.021696 -0.40841646 0
6.0908633 -9.0130486 0
-4.8280505 0.9667707 0
6.853556 -5.4041194 0
-9.5432698 3.5625323 0
-10.016989 -0.9786089 0
10.023181 0.23591753 0
-9.9954946 -0.30178258 0
-9.2741696 -3.7423717 0
-3.8504172 -7.565038 0
-10.047011 -0.3798538 0
-14.60527 0.30114769 0
-7.1108154 0.38019283 0
-12.464699 8.8535171 0
-5.1912691 3.5934233 0
-8.2750788 -2.8768788 0
-10.6344 -0.19369434 0
-6.449407 -10.207504 0
-9.901379 0.5684491 0
7.3402911 0.66830098 0
-3.6653163 4.2797959 0
1.6309013 -6.1897622 0
-11.691059 4.5562513 0
-2.2031323 7.4910001 0
-9.9731046 -1.315518 0
-10.045663 0.060559618 0
-7.232473 4.944473 0
-9.182714 6.0604173 0
-4.1410356 4.4248844 0
-3.4800975 7.638357 0
-2.5090613 14.856063 0
-10.043464 -0.033671498 0
-9.9708728 1.334362 0
-4.2116229 6.9981438 0
4.5070818 -0.15144071 0
-2.188932 0.62086732 0
-4.0253143 5.8382724 0
-10.017208 -1.6771404 0
-3.9020626 3.170219 0
-6.7161299 10.486886 0
-10.192891 0.049694927 0
-10.007057 0.0091800404 0
-10.013104 0.067661262 0
6.6240717 -3.4601261 0
-7.5849087 -4.3745333 0
8.2644476 -7.939244 0
-8.6107982 5.3220997 0
-0.61604319 -9.0193955 0
1.8124636 7.8442698 0
9.9645729 1.0721194 0
10.036654 -0.04499043 0
-10.00121 0.062010926 0
0.49279498 -8.2806664 0
-2.421136 7.5426674 0
-5.2673934 3.2553861 0
3.4914507 -7.0554233 0
10.038735 0.027310856 0
9.9626359 -1.0873937 0
0.59160017 -15.368179 0
1.3340858 7.6271978 0
-7.3268903 -9.9017351 0
-9.7293658 2.3588398 0
-6.9395832 -3.8756053 0
-9.5130965 -3.3406573 0
-10.01188 -0.050813317 0
-10.007457 -0.0094448719 0
-9.9998268 0.012366248 0
-9.9838505 0.018844382 0
-14.280322 -3.0286622 0
-7.0217037 -2.589255 0
-3.2589411 8.6406504 0
2.4442025 -4.9092597 0
-9.8753245 1.759795 0
-8.4260752 -6.0947062 0
-10.049796 -0.00010641928 0
-10.049804 0.00032715713 0
-10.047382 0.25905767 0
0.77510016 -10.857962 0
-10.07555 -0.043707777 0
-10.0023 0.0075744141 0
-10.045336 0.33095344 0
-10.049807 -0.00049981764 0
-10.049807 7.3032968e-05 0
-8.5574123 5.8632348 0
-9.8524232 -1.904818 0
-4.4939621 -4.229056 0
4.7078055 9.9882133 0
-4.9779244 3.8611227 0
-10.181932 -5.8964321 0
-9.9080089 -0.076699881 0
-9.9996464 -0.012384186 0
-10.000067 0.013627189 0
2.0947094 -4.9573605 0
-6.7358094 1.8066855 0
-10.110901 0.24465527 0
-9.9434472 -0.55238461 0
-7.6323762 -7.2922484 0
2.1738902 11.273963 0
8.3209287 4.9142452 0
10.036197 0.00013269295 0
10.0362 -0.00026696273 0
10.032523 -0.21352089 0
-10.013942 -0.00049456425 0
0.51540917 -13.971156 0
-10.012436 -0.03753207 0
10.03045 -0.27288369 0
10.036195 0.00040125974 0
10.036186 -8.7501313e-05 0
8.4587967 -4.7317436 0
-9.2876074 7.5049322 0
-1.7162531 -12.009092 0
-11.610439 3.1607526 0
-10.314205 -0.22038925 0
-4.861316 4.0992669 0
-10.196682 0.16667786 0
-10.020328 -0.028623032 0
-9.9973253 0.030901975 0
-10.062876 -0.14871612 0
-10.001657 0.00014174783 0
-10.001947 0.0054868142 0
4.2296711 10.574158 0
-10.088641 1.7302659 0
7.4098548 5.7505489 0
9.999377 -0.00096820784 0
9.9996006 4.8531363e-06 0
9.9996002 -1.7840058e-07 0
9.9996032 0.001093736 0
9.9991346 -0.0014863847 0
-10.013519 0.0013991533 0
9.9984707 0.030621803 0
9.9996032 0.0013940592 0
9.9996002 -4.2015021e-08 0
9.999601 -6.4200877e-06 0
9.9993827 0.0010264393 0
7.022923 -6.1533167 0
-5.3699877 -13.864786 0
-0.58637082 0.48250078 0
-9.0694349 5.811644 0
-10.006256 0.0019024124 0
-10.000921 -0.0005853338 0
-10.003353 -0.01245861 0
-10.000135 0.0122422 0
-10.000161 -0.000238377 0
-9.999884 3.7859117e-05 0
-9.9998471 0.0073727444 0
-4.9675762 -2.1064099 0
9.8684891 -1.2150369 0
10.000288 0.0026416067 0
10.000419 -1.0112892e-05 0
10.000432 -1.601281e-06 0
10.000433 -1.9449287e-09 0
10.000433 -8.0745144e-08 0
10.000482 0.00021529193 0
10.001077 -0.0012104944 0
10.000479 0.00031284181 0
10.000433 -6.6606326e-08 0
10.000433 -2.3427556e-09 0
10.000432 1.602769e-06 0
10.000423 2.7161856e-06 0
10.000512 0.00010834293 0
9.8877493 1.2460658 0
-4.5278389 2.7097488 0
1.5330383 7.2512074 0
-9.9996525 -0.0010924544 0
-9.9999088 9.0182422e-05 0
-9.9999165 -0.012107886 0
-10.011438 0.011436369 0
-10.01211 -9.0363452e-05 0
-10.012124 0.00047355087 0
-12.344014 -5.5180726 0
7.177806 6.1567692 0
9.9423692 -0.051794365 0
9.9966725 -3.882354e-05 0
9.9966845 -1.5497532e-08 0
9.9966845 1.2448973e-11 0
9.9966845 1.9111264e-12 0
9.9966845 -1.1692866e-09 0
9.9966845 6.2761997e-09 0
9.9966887 -4.5052447e-08 0
9.9966845 2.8060458e-08 0
9.9966845 -2.0030557e-09 0
9.9966845 -1.3408175e-12 0
9.9966845 -1.1845249e-12 0
9.9966845 9.3673379e-09 0
9.9966755 4.104073e-05 0
9.9442196 0.046155489 0
6.951842 -6.3365101 0
-12.15452 3.854928 0
-10.01336 -0.0036615626 0
-10.012109 8.004476e-05 0
-10.011436 -0.011435969 0
-3.5566749 7.3676437 0
0.7729359 -5.5917109 0
7.8504954 6.1892195 0
-1.274428 -7.9411204 0
1.1637298 1.3609903 0
2.2336501 5.5317018 0
-6.0390972 -8.3081153 0
9.9486856 5.7172912 0
1.2829079 8.7470319 0
-10.329347 5.7843941 0
2.0581638 2.9656272 0
-4.3456997 10.194589 0
1.1567545 -12.298734 0
5.3465076 -3.2768164 0
-12.890702 -10.444594 0
-4.2772107 -0.31397079 0
-5.9264721 -15.159724 0
12.786041 4.4991155 0
-2.8281719 -12.676006 0
-0.90242828 -6.0319744 0
4.9788233 18.593321 0
-5.5841937 8.8088462 0
1.6705823 -0.32325679 0
-6.393181 -4.5186492 0
3.6893848 13.692976 0
-2.63098 -13.726701 0
7.9067426 -4.0728704 0
-5.367934 -9.6104682 0
-5.7260067 -2.3464143 0
-3.1529339 3.7312249 0
6.0317391 -4.435756 0
13.333078 -3.5797247 0
12.048989 4.9750822 0
0.56949659 3.1092963 0
3.0549554 -4.6388915 0
-3.9990658 -11.63368 0
9.9718979 12.427179 0
-2.099967 -4.7747095 0
8.371547 -10.90378 0
2.2600692 -8.6365431 0
-3.9442662 -3.4933502 0
8.9455688 -0.70683634 0
9.6672623 14.002532 0
4.0785326 1.6857464 0
-1.2057821 -14.597127 0
-8.3175895 7.2295899 0
-0.11777793 1.1359877 0
-5.3906886 9.5763174 0
7.9577656 7.0264259 0
-2.6309801 13.726701 0
0.025720012 -9.5625149 0
10.370725 -9.6619433 0
-11.164024 1.6696443 0
-9.8399499 -4.9813877 0
-1.2373836 -3.5352183 0
-3.5196433 13.523366 0
12.135772 -9.9931263 0
2.8436109 -13.255159 0
-11.519562 10.402583 0
-4.3046273 4.1227404 0
3.3428052 -1.7935174 0
-7.1800225 2.3059296 0
13.14007 3.892253 0
1.375111 -3.6620457 0
1.1401426 0.37447963 0
-1.93972 -9.4364261 0
4.1595104 12.88285 0
5.1116625 0.017001965 0
-2.6727418 0.49593026 0
7.7701018 5.2548074 0
-7.0434646 2.7368492 0
6.9630422 5.090387 0
-4.1317505 3.0491557 0
-2.1115212 -3.197428 0
0.0020921473 9.539239 0
0.23309962 -3.5088485 0
-6.8350789 -10.617922 0
11.149355 3.3757942 0
-3.7830033 -6.238746 0
4.0083404 5.1077088 0
4.1849287 12.361577 0
-2.9150836 -3.8812867 0
0.32367275 -1.8124712 0
1.0457442 8.4993461 0
7.1743282 16.357321 0
-3.4191942 -6.7945395 0
-8.8394043 2.325976 0
-13.155003 -3.4249941 0
-3.192884 -12.998232 0
-0.76262556 3.7784058 0
-9.2390933 10.177229 0
2.2049382 -5.8774835 0
13.406294 5.6908543 0
-2.9819869 -3.6738049 0
0.18765494 -2.1186526 0
6.4410575 -4.8574504 0
6.0724525 10.162415 0
-1.2469251 14.418066 0
-6.8350847 10.617911 0
0.25938781 3.5226908 0
14.577555 -2.6609731 0
5.521358 8.339245 0
-9.6541942 -8.1471524 0
3.6548518 -4.1529707 0
1.5534182 9.5253635 0
-5.5178758 7.5533958 0
4.301404 -7.2979179 0
11.394425 11.869122 0
3.1922944 -8.9709042 0
4.8188607 2.9441313 0
1.8410067 -2.4406372 0
-5.4170125 5.2766843 0
2.5805103 0.85632551 0
-10.873192 -13.86707 0
-16.333441 0.51543226 0
-1.946715 11.355604 0
0.66867329 -4.2598156 0
6.9759209 -1.4793892 0
2.9386696 9.9600102 0